# vtk DataFile Version 4.1
Exported OTI solution
ASCII
DATASET UNSTRUCTURED_GRID
POINTS 1870 double
-2.0 1.0 0.0
18.0 1.0 0.0
18.0 -0.5 0.0
0.0 -0.5 0.0
0.0 0.0 0.0
-2.0 0.0 0.0
-2.0 0.8 0.0
-2.0 0.600000000001 0.0
-2.0 0.400000000002 0.0
-2.0 0.200000000001 0.0
-1.78951323139 0.0 0.0
-1.59719128455 0.0 0.0
-1.42146669575 0.0 0.0
-1.26090707004 0.0 0.0
-1.11420366145 0.0 0.0
-0.980160717855 0.0 0.0
-0.857685619122 0.0 0.0
-0.745780069862 0.0 0.0
-0.643531903821 0.0 0.0
-0.550107733589 0.0 0.0
-0.464746031387 0.0 0.0
-0.386751003997 0.0 0.0
-0.31548692272 0.0 0.0
-0.250372904197 0.0 0.0
-0.190878191808 0.0 0.0
-0.136517854424 0.0 0.0
-0.0868487870642 0.0 0.0
-0.0414661430751 0.0 0.0
0.0 -0.0384615384615 0.0
0.0 -0.0769230769229 0.0
0.0 -0.115384615384 0.0
0.0 -0.153846153846 0.0
0.0 -0.192307692307 0.0
0.0 -0.230769230769 0.0
0.0 -0.26923076923 0.0
0.0 -0.307692307692 0.0
0.0 -0.346153846153 0.0
0.0 -0.384615384615 0.0
0.0 -0.423076923077 0.0
0.0 -0.461538461538 0.0
0.0400578428885 -0.5 0.0
0.0805217996972 -0.5 0.0
0.121395968615 -0.5 0.0
0.162684537415 -0.5 0.0
0.204391686836 -0.5 0.0
0.24652167284 -0.5 0.0
0.289078773741 -0.5 0.0
0.332067324169 -0.5 0.0
0.375491694285 -0.5 0.0
0.419356304825 -0.5 0.0
0.463665613241 -0.5 0.0
0.508424145553 -0.5 0.0
0.553636433757 -0.5 0.0
0.599307089163 -0.5 0.0
0.645440762004 -0.5 0.0
0.692042146589 -0.5 0.0
0.739115979385 -0.5 0.0
0.786667042245 -0.5 0.0
0.834700193383 -0.5 0.0
0.883220299756 -0.5 0.0
0.932232309893 -0.5 0.0
0.981741212977 -0.5 0.0
1.03175203987 -0.5 0.0
1.08226988002 -0.5 0.0
1.13329989976 -0.5 0.0
1.18484724187 -0.5 0.0
1.23691715977 -0.5 0.0
1.28951499241 -0.5 0.0
1.34264604709 -0.5 0.0
1.39631575439 -0.5 0.0
1.45052959568 -0.5 0.0
1.50529303335 -0.5 0.0
1.56061169072 -0.5 0.0
1.61649115838 -0.5 0.0
1.67293713491 -0.5 0.0
1.72995537489 -0.5 0.0
1.78755164965 -0.5 0.0
1.84573185458 -0.5 0.0
1.90450192322 -0.5 0.0
1.96386778458 -0.5 0.0
2.02383549023 -0.5 0.0
2.08441117523 -0.5 0.0
2.14560095686 -0.5 0.0
2.20741111907 -0.5 0.0
2.26984789177 -0.5 0.0
2.33291768413 -0.5 0.0
2.39662686562 -0.5 0.0
2.46098191719 -0.5 0.0
2.5259894385 -0.5 0.0
2.59165598626 -0.5 0.0
2.65798830136 -0.5 0.0
2.72499307963 -0.5 0.0
2.7926771424 -0.5 0.0
2.86104741954 -0.5 0.0
2.93011082184 -0.5 0.0
2.99987442201 -0.5 0.0
3.07034527159 -0.5 0.0
3.1415305678 -0.5 0.0
3.21343752752 -0.5 0.0
3.28607350362 -0.5 0.0
3.35944587675 -0.5 0.0
3.4335621058 -0.5 0.0
3.50842972857 -0.5 0.0
3.58405636008 -0.5 0.0
3.66044970041 -0.5 0.0
3.73761752163 -0.5 0.0
3.81556768114 -0.5 0.0
3.89430812579 -0.5 0.0
3.97384682223 -0.5 0.0
4.05419190732 -0.5 0.0
4.13535152486 -0.5 0.0
4.21733396226 -0.5 0.0
4.300147527 -0.5 0.0
4.38380067981 -0.5 0.0
4.46830190533 -0.5 0.0
4.5536598167 -0.5 0.0
4.63988310028 -0.5 0.0
4.72698051895 -0.5 0.0
4.81496093652 -0.5 0.0
4.90383331151 -0.5 0.0
4.99360667867 -0.5 0.0
5.08429017481 -0.5 0.0
5.17589303544 -0.5 0.0
5.2684245778 -0.5 0.0
5.36189420877 -0.5 0.0
5.45631144343 -0.5 0.0
5.55168588583 -0.5 0.0
5.64802723689 -0.5 0.0
5.74534532893 -0.5 0.0
5.84365001366 -0.5 0.0
5.94295134856 -0.5 0.0
6.04325939397 -0.5 0.0
6.14458436525 -0.5 0.0
6.24693659532 -0.5 0.0
6.35032648443 -0.5 0.0
6.45476457133 -0.5 0.0
6.56026142793 -0.5 0.0
6.66682779929 -0.5 0.0
6.77447457307 -0.5 0.0
6.88321270709 -0.5 0.0
6.99305321321 -0.5 0.0
7.10400726249 -0.5 0.0
7.21608620634 -0.5 0.0
7.32930144195 -0.5 0.0
7.4436644343 -0.5 0.0
7.55918684994 -0.5 0.0
7.67588045403 -0.5 0.0
7.7937570577 -0.5 0.0
7.9128287792 -0.5 0.0
8.03310760538 -0.5 0.0
8.15460588533 -0.5 0.0
8.27733587835 -0.5 0.0
8.40131016831 -0.5 0.0
8.52654129097 -0.5 0.0
8.65304198744 -0.5 0.0
8.78082521117 -0.5 0.0
8.90990385917 -0.5 0.0
9.04029119494 -0.5 0.0
9.17200036425 -0.5 0.0
9.30504480698 -0.5 0.0
9.43943805378 -0.5 0.0
9.57519384662 -0.5 0.0
9.71232591066 -0.5 0.0
9.85084824081 -0.5 0.0
9.99077490219 -0.5 0.0
10.1321201883 -0.5 0.0
10.2748984266 -0.5 0.0
10.4191241576 -0.5 0.0
10.5648120742 -0.5 0.0
10.7119769834 -0.5 0.0
10.8606338743 -0.5 0.0
11.0107978485 -0.5 0.0
11.1624842106 -0.5 0.0
11.315708371 -0.5 0.0
11.4704859633 -0.5 0.0
11.626832687 -0.5 0.0
11.7847644626 -0.5 0.0
11.944297335 -0.5 0.0
12.1054476308 -0.5 0.0
12.2682316562 -0.5 0.0
12.4326659898 -0.5 0.0
12.5987673756 -0.5 0.0
12.7665527242 -0.5 0.0
12.9360391019 -0.5 0.0
13.1072437347 -0.5 0.0
13.2801840403 -0.5 0.0
13.4548776818 -0.5 0.0
13.6313423442 -0.5 0.0
13.8095960211 -0.5 0.0
13.9896568678 -0.5 0.0
14.1715431972 -0.5 0.0
14.3552734867 -0.5 0.0
14.5408664609 -0.5 0.0
14.7283409689 -0.5 0.0
14.9177161523 -0.5 0.0
15.1090112251 -0.5 0.0
15.302245658 -0.5 0.0
15.4974391089 -0.5 0.0
15.6946114783 -0.5 0.0
15.8937827961 -0.5 0.0
16.094973292 -0.5 0.0
16.2982035362 -0.5 0.0
16.5034942047 -0.5 0.0
16.7108660298 -0.5 0.0
16.9203402154 -0.5 0.0
17.1319380901 -0.5 0.0
17.3456810793 -0.5 0.0
17.5615911254 -0.5 0.0
17.7796900194 -0.5 0.0
18.0 -0.285714285715 0.0
18.0 -0.0714285714302 0.0
18.0 0.142857142855 0.0
18.0 0.35714285714 0.0
18.0 0.571428571427 0.0
18.0 0.785714285713 0.0
17.7777777778 1.0 0.0
17.5555555556 1.0 0.0
17.3333333333 1.0 0.0
17.1111111111 1.0 0.0
16.8888888889 1.0 0.0
16.6666666667 1.0 0.0
16.4444444444 1.0 0.0
16.2222222222 1.0 0.0
16.0 1.0 0.0
15.7777777778 1.0 0.0
15.5555555556 1.0 0.0
15.3333333333 1.0 0.0
15.1111111111 1.0 0.0
14.8888888889 1.0 0.0
14.6666666667 1.0 0.0
14.4444444444 1.0 0.0
14.2222222222 1.0 0.0
14.0 1.0 0.0
13.7777777778 1.0 0.0
13.5555555556 1.0 0.0
13.3333333333 1.0 0.0
13.1111111111 1.0 0.0
12.8888888889 1.0 0.0
12.6666666667 1.0 0.0
12.4444444444 1.0 0.0
12.2222222222 1.0 0.0
12.0 1.0 0.0
11.7777777778 1.0 0.0
11.5555555556 1.0 0.0
11.3333333333 1.0 0.0
11.1111111111 1.0 0.0
10.8888888889 1.0 0.0
10.6666666667 1.0 0.0
10.4444444444 1.0 0.0
10.2222222222 1.0 0.0
10.0 1.0 0.0
9.77777777778 1.0 0.0
9.55555555556 1.0 0.0
9.33333333333 1.0 0.0
9.11111111111 1.0 0.0
8.88888888889 1.0 0.0
8.66666666667 1.0 0.0
8.44444444444 1.0 0.0
8.22222222222 1.0 0.0
8.0 1.0 0.0
7.77777777778 1.0 0.0
7.55555555556 1.0 0.0
7.33333333333 1.0 0.0
7.11111111111 1.0 0.0
6.88888888889 1.0 0.0
6.66666666667 1.0 0.0
6.44444444444 1.0 0.0
6.22222222222 1.0 0.0
6.0 1.0 0.0
5.77777777778 1.0 0.0
5.55555555556 1.0 0.0
5.33333333333 1.0 0.0
5.11111111111 1.0 0.0
4.88888888889 1.0 0.0
4.66666666667 1.0 0.0
4.44444444444 1.0 0.0
4.22222222222 1.0 0.0
4.0 1.0 0.0
3.77777777778 1.0 0.0
3.55555555556 1.0 0.0
3.33333333333 1.0 0.0
3.11111111111 1.0 0.0
2.88888888889 1.0 0.0
2.66666666667 1.0 0.0
2.44444444444 1.0 0.0
2.22222222222 1.0 0.0
2.0 1.0 0.0
1.77777777778 1.0 0.0
1.55555555556 1.0 0.0
1.33333333333 1.0 0.0
1.11111111111 1.0 0.0
0.888888888889 1.0 0.0
0.666666666667 1.0 0.0
0.444444444444 1.0 0.0
0.222222222222 1.0 0.0
-1.06581410364e-14 1.0 0.0
-0.222222222222 1.0 0.0
-0.444444444444 1.0 0.0
-0.666666666667 1.0 0.0
-0.888888888889 1.0 0.0
-1.11111111111 1.0 0.0
-1.33333333333 1.0 0.0
-1.55555555556 1.0 0.0
-1.77777777778 1.0 0.0
0.668741454296 0.196672210433 0.0
0.385172707648 -0.10443166945 0.0
1.35557416021 0.200389787014 0.0
2.11500606605 0.246321467968 0.0
2.81373977968 0.192605228332 0.0
3.54624304433 0.218416104453 0.0
4.24949975172 0.210457033651 0.0
4.94871999509 0.188883406677 0.0
5.69380128111 0.245967885333 0.0
6.39501909774 0.201987865659 0.0
0.715579062987 -0.174711119384 0.0
1.12099085608 -0.0920933454571 0.0
0.225456679838 -0.275443593416 0.0
1.73952521373 -0.0328110135177 0.0
7.05266310253 0.150090306043 0.0
7.73939267277 0.191710287401 0.0
8.45624423688 0.238802863876 0.0
-0.0204001460368 0.506265718127 0.0
-0.502125936316 0.470400313765 0.0
2.4288043914 -0.0615631082107 0.0
1.4226458996 -0.17898430631 0.0
3.18587758231 -0.0564563234427 0.0
0.285377599853 0.260868382699 0.0
9.23681764806 0.25758158911 0.0
9.93510635178 0.178647527468 0.0
10.6383945288 0.214531213041 0.0
2.11307952908 -0.169205679803 0.0
11.3782752243 0.285194667958 0.0
3.85120080386 -0.0791767867857 0.0
0.183196402811 -0.0961538461536 0.0
2.75988832684 -0.154822620775 0.0
12.1856314584 0.231318654907 0.0
4.60416509515 -0.071845891436 0.0
13.0207225513 0.254307288869 0.0
5.31814861066 -0.0609900916678 0.0
13.8941326286 0.237945565081 0.0
14.6843702924 0.24364555994 0.0
0.486044879397 -0.292233816683 0.0
15.3998423834 0.248299444309 0.0
5.9949576738 -0.0819098383448 0.0
0.914120019408 -0.271242765916 0.0
3.54073392655 -0.181889853859 0.0
4.26567748291 -0.160464796716 0.0
16.1758996358 0.236136517079 0.0
-0.221591327724 0.290004945738 0.0
17.0182897995 0.260665201238 0.0
1.64395650405 -0.274593918869 0.0
1.8751168889 -0.271355884224 0.0
-0.0207330715375 0.212905051067 0.0
6.71844803474 -0.0979434532859 0.0
8.84097845182 -0.0411259229221 0.0
-0.92547403347 0.429178495619 0.0
8.10249926067 -0.0656383449897 0.0
7.39218115929 -0.0904382587884 0.0
1.21030183607 -0.292980812405 0.0
4.95017282326 -0.168554237031 0.0
1.73685260823 0.370883674881 0.0
0.127964725644 -0.36659398925 0.0
0.995739333792 0.528155327443 0.0
2.55212388674 -0.273776022579 0.0
2.28277357583 -0.294816508962 0.0
0.356692288773 -0.35373210936 0.0
5.59985656136 -0.190437681621 0.0
2.96613094587 -0.269953020903 0.0
0.62469378999 -0.347931548526 0.0
6.29294447588 -0.184363298461 0.0
9.5073159502 -0.0792356635874 0.0
3.32275969019 -0.26332420566 0.0
3.18354777663 0.522251206296 0.0
0.111453087724 -0.210075311674 0.0
0.169209375902 0.0997911919744 0.0
-1.48306000083 0.493305979561 0.0
2.48673951539 0.518773441488 0.0
3.90572189244 0.52682529288 0.0
1.06022753819 -0.338502995019 0.0
4.61613726638 0.52144973436 0.0
1.36066506341 -0.330740139006 0.0
5.28659952673 0.47250564609 0.0
0.762891510815 -0.361243324475 0.0
1.41715210293 0.615504873419 0.0
11.1079806268 -0.0463942022968 0.0
0.535393287268 0.592416951315 0.0
7.37217942245 0.512681537434 0.0
10.3686447151 -0.0803406297674 0.0
11.789634317 -0.0204781608912 0.0
6.75773685241 0.52847899906 0.0
12.6023780083 -0.0092469619418 0.0
13.4585944174 0.00423774983399 0.0
4.00997460807 -0.259547195024 0.0
8.46896550793 -0.146362017586 0.0
[...]
POINT_DATA 1870
VECTORS u_0 double
7.4073716956e-32 -3.3291464478e-37 0 
6.58436281321e-32 -1.38777878078e-17 0 
6.52770379717e-32 2.64380134877e-43 0 
7.71054485789e-36 -2.92494900141e-36 0 
8.43784505898e-32 -5.23206343037e-32 0 
5.79993952171e-16 -3.32044066712e-37 0 
0.64 1.987257579e-37 0 
0.959999999999 3.92418777501e-36 0 
0.960000000001 3.45038904883e-36 0 
0.640000000002 2.26569620433e-37 0 
1.3426988261e-31 -2.08166817117e-17 0 
1.94387285131e-16 1.13797860024e-14 0 
1.120567594e-31 1.66021369046e-37 0 
1.02327817324e-31 3.67132071855e-36 0 
9.34113286121e-32 1.91513471748e-15 0 
8.52295144979e-32 2.40779618466e-15 0 
7.77274709413e-32 5.18882637973e-36 0 
7.08689413421e-32 9.5265019507e-36 0 
6.46153767235e-32 -8.32667268469e-17 0 
5.89586019294e-32 1.53832462834e-35 0 
5.3864012087e-32 1.56825113003e-35 0 
4.93450417745e-32 1.87778333114e-35 0 
4.53637520343e-32 2.16769278963e-35 0 
4.1962579817e-32 3.56025549866e-35 0 
3.89845578652e-32 1.12910378207e-34 0 
3.7157104648e-32 1.06107431054e-34 0 
3.31799276392e-32 9.20216273558e-34 0 
3.47527951344e-32 6.98825079926e-33 0 
-1.99353776164e-32 -7.1054273576e-15 0 
1.00571950743e-32 -2.63356599673e-32 0 
1.01307850997e-15 -1.3876113332e-32 0 
3.55086479785e-33 -4.82132039809e-33 0 
-2.13629079742e-33 -9.42458819561e-34 0 
-1.13998911917e-34 0.0 0 
2.36059903571e-33 -8.45326323853e-34 0 
1.97758476261e-16 1.03593005717e-33 0 
-1.9850219471e-35 -3.7000620716e-34 0 
2.72782645336e-34 -3.76825267369e-34 0 
6.53280275998e-35 -9.43689570931e-16 0 
-2.86338876979e-35 -1.45716771982e-16 0 
-8.05971072339e-35 1.02121524865e-35 0 
-2.6159836236e-34 7.14785551652e-36 0 
-4.35120700016e-34 -8.79049437408e-15 0 
-4.3587782433e-34 2.72367848761e-15 0 
-2.19061611047e-34 -3.5527136788e-15 0 
2.14343587841e-34 -3.34186351074e-36 0 
8.41724579466e-34 -6.15084785977e-36 0 
1.62554981535e-33 -1.04481256732e-35 0 
2.53785592257e-33 -1.02813599102e-35 0 
3.50982954101e-33 -1.51591316494e-35 0 
4.52706984614e-33 3.62393840755e-36 0 
5.54399358286e-33 -1.95399252334e-14 0 
6.54399673868e-33 -1.02365173714e-35 0 
7.50365555313e-33 -9.78319526619e-36 0 
8.41616069952e-33 -9.69067599744e-36 0 
9.26753912165e-33 -8.5362510364e-36 0 
1.00640460135e-32 -6.1000311342e-36 0 
1.38777878078e-16 -5.10892719904e-36 0 
1.14622026977e-32 -4.41470628983e-36 0 
1.20709321578e-32 -3.79366212539e-36 0 
1.26291199761e-32 -3.59254396086e-36 0 
1.31348238743e-32 -3.09995219424e-36 0 
7.84095011142e-16 -2.46297072385e-36 0 
1.40117999113e-32 -1.2930912357e-36 0 
1.43904210407e-32 -6.78582091044e-37 0 
1.47349341209e-32 -2.55178621003e-37 0 
1.50498122354e-32 -9.78086061705e-37 0 
1.53413772995e-32 -5.54255666153e-37 0 
1.56073905587e-32 1.13262060156e-37 0 
1.58539583666e-32 2.99792014201e-37 0 
1.60849997678e-32 4.26008022038e-37 0 
-1.20042864538e-15 1.02678498788e-36 0 
1.65065481132e-32 7.62185626686e-37 0 
1.67034062822e-32 3.67889487664e-37 0 
1.68927182491e-32 3.68425524104e-37 0 
1.70769108556e-32 0.0 0 
1.72559405596e-32 9.14766396793e-37 0 
1.74326812662e-32 1.10740160524e-37 0 
1.76071875674e-32 5.53281921147e-18 0 
1.77810726194e-32 2.15503800305e-37 0 
1.79545049361e-32 3.17611619887e-37 0 
1.81287734016e-32 3.30463230394e-37 0 
1.83038773047e-32 2.98987668408e-37 0 
1.84806869982e-32 3.44281067884e-37 0 
1.86590786256e-32 2.78599594156e-37 0 
1.88396984654e-32 1.52353350545e-37 0 
1.90226626232e-32 -2.09554595898e-15 0 
1.92078777422e-32 2.02047542183e-37 0 
1.93957698334e-32 1.17171351284e-37 0 
1.95861312951e-32 9.08753949128e-38 0 
1.97792378375e-32 7.36768206657e-38 0 
1.99748937362e-32 8.98196837048e-38 0 
2.01731803065e-32 7.26197452261e-38 0 
2.03740903169e-32 3.2145276162e-38 0 
2.05776309347e-32 2.80917846103e-38 0 
2.07836999979e-32 2.42566153493e-38 0 
2.09923060378e-32 1.53296658878e-38 0 
2.12034361033e-32 2.34283938327e-39 0 
2.14170518859e-32 9.55940556205e-40 0 
2.16331223139e-32 2.16790063757e-39 0 
2.18516222019e-32 -9.4055739225e-40 0 
2.20725359447e-32 -1.61156563823e-39 0 
2.22958556663e-32 -4.58097546044e-39 0 
2.2521566852e-32 -2.43342682685e-39 0 
2.27496677368e-32 -1.80511194809e-39 0 
2.29801671502e-32 -2.64146254547e-39 0 
2.32130654106e-32 -2.31965708867e-39 0 
2.34483692255e-32 -2.82459445994e-39 0 
2.36860874642e-32 -2.87060234009e-39 0 
2.39262406672e-32 -2.41446190381e-39 0 
-3.88578058619e-16 -2.60048577214e-39 0 
2.44139078952e-32 -2.85029415323e-39 0 
2.46614623911e-32 -1.82267965604e-39 0 
2.49115260474e-32 -1.45662281195e-39 0 
2.51641223015e-32 -1.39264955109e-39 0 
2.54192775726e-32 -9.56189884096e-40 0 
2.5677014105e-32 -6.63797098084e-40 0 
2.59373578405e-32 -3.32002154569e-40 0 
2.6200337298e-32 -1.88205413967e-40 0 
2.64659783394e-32 -2.45687240978e-40 0 
2.67343081051e-32 -3.13322476156e-40 0 
2.70053567091e-32 -1.77463854556e-40 0 
2.72791509357e-32 8.06601077669e-42 0 
2.7555716747e-32 3.10868854757e-41 0 
2.78350839039e-32 2.01364153473e-41 0 
2.81172820331e-32 5.78702629129e-41 0 
2.84023389994e-32 6.14267603916e-41 0 
2.86902888835e-32 5.72005409148e-41 0 
2.89811543135e-32 3.09985934554e-22 0 
2.92749686939e-32 8.43716003119e-41 0 
2.95717632452e-32 7.12709211809e-41 0 
2.98715613457e-32 6.46463287051e-41 0 
3.0174403511e-32 6.1871212534e-41 0 
3.04803171585e-32 6.1243536136e-41 0 
3.07893328572e-32 5.85168363849e-41 0 
3.11014760416e-32 5.5485902094e-41 0 
3.14167773165e-32 5.56154414913e-41 0 
3.17352834543e-32 5.15603650897e-41 0 
3.20570259785e-32 5.14357381677e-41 0 
3.23820232984e-32 4.99823759073e-41 0 
3.27103069989e-32 4.93774787224e-41 0 
3.30419273817e-32 4.88465607354e-41 0 
3.33769179456e-32 4.83255770887e-41 0 
3.37152955132e-32 4.81275027023e-41 0 
3.4057099984e-32 4.79494214786e-41 0 
3.44023758285e-32 4.77971545144e-41 0 
3.47511444624e-32 4.75448575931e-41 0 
3.51034581949e-32 4.74108807288e-41 0 
3.5459343058e-32 4.72752890553e-41 0 
4.57966997658e-16 4.71328959131e-41 0 
3.6181969127e-32 4.70633839964e-41 0 
3.65487854742e-32 4.7035939815e-41 0 
3.69193232522e-32 4.69124335024e-41 0 
3.72936057518e-32 4.67510659139e-41 0 
3.76716948529e-32 4.65980431744e-41 0 
3.80536136537e-32 4.63586447709e-41 0 
3.84394080855e-32 4.62257112977e-41 0 
3.88291150026e-32 4.61200697819e-41 0 
3.92227605352e-32 4.58962317849e-41 0 
3.96204017009e-32 4.56622133667e-41 0 
4.00220832565e-32 4.5482243358e-41 0 
4.04278340174e-32 4.52358332176e-41 0 
4.08376914549e-32 4.4861160437e-41 0 
4.12517059361e-32 4.43688534749e-41 0 
4.16699216964e-32 4.40095791168e-41 0 
4.20923775967e-32 4.38031304504e-41 0 
4.25191102385e-32 4.35270081664e-41 0 
4.29501737512e-32 4.32290417632e-41 0 
4.33856076198e-32 4.27316989628e-41 0 
4.38254557219e-32 4.23039666904e-41 0 
4.42697617121e-32 4.18960132756e-41 0 
4.47185723378e-32 4.13203772462e-41 0 
4.51719333136e-32 4.08208389336e-41 0 
4.56298934087e-32 4.02698402888e-41 0 
4.60924954494e-32 3.97110085391e-41 0 
4.65597819309e-32 3.92984907537e-41 0 
4.70318040215e-32 3.85977602259e-41 0 
4.75086219056e-32 3.79405849324e-41 0 
4.79902742798e-32 3.71975976086e-41 0 
2.38697950294e-15 3.66251817193e-41 0 
4.89682593273e-32 3.6102256652e-41 0 
4.94647060618e-32 3.5141239586e-41 0 
4.99661864102e-32 3.05311331772e-16 0 
5.04727471132e-32 3.37015283802e-41 0 
5.09844402172e-32 3.28731229393e-41 0 
5.1501330464e-32 3.21749878751e-41 0 
5.2023457454e-32 3.10582934153e-41 0 
5.25508701836e-32 3.1918911958e-16 0 
5.30836383053e-32 2.93350978505e-41 0 
5.36218091175e-32 2.83659699319e-41 0 
5.41654303558e-32 2.73936667558e-41 0 
5.47145629907e-32 2.63408658564e-41 0 
5.52692620883e-32 2.52235006161e-41 0 
5.58295894642e-32 2.41193575656e-41 0 
5.639559913e-32 2.29393697896e-41 0 
5.69673398663e-32 2.17710176898e-41 0 
5.75448774475e-32 2.04350931359e-41 0 
5.81282755291e-32 1.91006736065e-41 0 
5.87175892097e-32 1.78627041918e-41 0 
5.93128672831e-32 1.649914048e-41 0 
5.99141897913e-32 1.5017919542e-41 0 
6.05216228364e-32 1.35078061052e-41 0 
6.11351904495e-32 1.20523584268e-41 0 
6.17549708219e-32 1.0507949229e-41 0 
6.2381052327e-32 8.84491927331e-42 0 
6.30134677577e-32 7.19638294732e-42 0 
6.36523080343e-32 2.21779783259e-18 0 
6.42976273194e-32 3.65106025366e-42 0 
6.49494695386e-32 1.79697681256e-42 0 
0.326530645623 1.22122884721e-12 0 
0.54421774269 1.07225339718e-12 0 
0.653061291221 4.95522026189e-13 0 
0.653061291222 -4.35797949573e-13 0 
0.544217742693 -1.047249093e-12 0 
0.326530645625 -1.23775295569e-12 0 
6.58436281309e-32 -1.78136726066e-42 0 
1.35308431126e-16 -3.75193483535e-42 0 
6.58436281231e-32 -5.74531354053e-42 0 
6.58436281171e-32 -7.63383627189e-42 0 
6.58436281091e-32 -9.52183127582e-42 0 
6.58436280996e-32 -1.14771697631e-41 0 
6.58436280885e-32 -1.33167970798e-41 0 
6.58436280755e-32 -4.12856155307e-17 0 
6.58436280608e-32 3.83850955119e-17 0 
6.58436280444e-32 -1.96085226783e-41 0 
6.58436280261e-32 -2.08842103101e-41 0 
6.58436280061e-32 -2.31007774043e-41 0 
6.58436279847e-32 -2.51658702277e-41 0 
6.58436279613e-32 -2.70913207245e-41 0 
6.58436279362e-32 -2.87698386366e-41 0 
6.58436279091e-32 -3.0275412064e-41 0 
6.58436278805e-32 -3.27925772584e-41 0 
6.58436278505e-32 -3.48151827611e-41 0 
6.58436278182e-32 -3.66513078409e-41 0 
6.58436277845e-32 -3.78983557479e-41 0 
6.58436277488e-32 -4.06570259535e-41 0 
6.58436277119e-32 2.62284617555e-17 0 
6.58436276727e-32 -4.49051293024e-41 0 
6.58436276318e-32 -4.58088224418e-41 0 
6.58436275898e-32 -4.82471289795e-41 0 
6.58436275452e-32 -5.01183665752e-41 0 
6.58436274994e-32 -1.58888726528e-16 0 
6.58436274522e-32 -5.37484231926e-41 0 
6.58436274022e-32 -5.55043745422e-41 0 
6.58436273509e-32 -5.81840022595e-41 0 
6.58436272984e-32 5.14373644694e-17 0 
6.58436272439e-32 -4.38632752127e-17 0 
6.58436271877e-32 -6.34395621816e-41 0 
6.58436271293e-32 -6.40638177731e-41 0 
6.58436270696e-32 -6.78752899639e-41 0 
6.58436270082e-32 -6.97614239517e-41 0 
6.58436269448e-32 -7.01517298613e-41 0 
6.58436268803e-32 -7.31167033673e-41 0 
6.58436268134e-32 -7.48483077906e-41 0 
6.58436267458e-32 -7.6827769557e-41 0 
6.58436266762e-32 -7.89440595008e-41 0 
6.58436266063e-32 -6.56713840846e-16 0 
6.58436265349e-32 1.05324776909e-16 0 
6.58436264619e-32 -3.87710696881e-15 0 
6.58436263842e-32 -8.74022271122e-41 0 
6.58436262953e-32 -8.95060196548e-41 0 
6.58436261815e-32 -8.86983291655e-41 0 
6.58436260232e-32 -9.34176204792e-41 0 
6.58436257733e-32 -9.29842027733e-41 0 
6.58436253733e-32 -7.02633363134e-41 0 
6.58436247676e-32 -8.81882611061e-41 0 
6.58436239348e-32 -7.72671368159e-41 0 
6.58436229636e-32 -3.08880778087e-16 0 
6.58436227498e-32 5.51699416139e-42 0 
6.58436242131e-32 -2.69805008309e-41 0 
6.58436316471e-32 -1.44331383754e-40 0 
6.58436514458e-32 -2.85681856089e-40 0 
6.58436956161e-32 -2.99186511238e-39 0 
6.58437817015e-32 1.11022302463e-16 0 
6.58439378985e-32 -9.97940171374e-39 0 
6.58441681153e-32 -1.25925697722e-38 0 
6.58444751433e-32 -1.39825432149e-38 0 
6.58447175582e-32 -3.26982019334e-38 0 
6.58445776254e-32 -3.7629693984e-38 0 
6.58430670581e-32 -2.91433543964e-15 0 
6.5838310029e-32 6.92944795115e-38 0 
6.58271216998e-32 3.5527136788e-15 0 
6.5803536693e-32 5.55841415002e-37 0 
6.57604329951e-32 1.39850665675e-36 0 
6.56890314752e-32 1.56239045645e-36 0 
6.55911755681e-32 6.24812415345e-36 0 
6.54877828325e-32 1.26400335777e-35 0 
6.54730806078e-32 1.57896879203e-35 0 
6.57373810484e-32 1.5182120251e-35 0 
6.67601701832e-32 1.14239228491e-35 0 
6.95824797798e-32 3.35668992602e-16 0 
7.516509543e-32 -8.17376232488e-35 0 
8.53665118999e-32 -5.42826062113e-34 0 
1.01138564712e-31 -1.00598804358e-33 0 
1.18748810414e-31 -4.9704345772e-34 0 
1.35326671788e-31 -3.30401132139e-34 0 
1.45137915726e-31 -3.02707857079e-35 0 
1.48665349614e-31 8.97050751246e-35 0 
1.49139942706e-31 4.34344355439e-35 0 
1.48785456599e-31 5.67362996862e-16 0 
1.4842562335e-31 1.7630546073e-35 0 
1.48238605143e-31 5.65713852154e-36 0 
-1.66533453694e-15 1.15147163325e-36 0 
1.48148886738e-31 -3.41681852629e-37 0 
0.651023746031 -0.155340306225 0 
0.274888246584 -0.153341249784 0 
0.661951814506 -0.0218717671771 0 
0.666657124656 0.000255620377991 0 
0.662822655654 0.000377659666214 0 
0.665486701296 4.23599938202e-05 0 
0.664813133555 -1.09129814496e-06 0 
0.662239595143 -9.64024684858e-07 0 
0.66664743857 -9.55779588236e-08 0 
0.663934664419 4.07233713418e-09 0 
0.349248814442 -0.0667470847234 0 
0.502213386856 -0.0296009084638 0 
0.0491403914825 -0.0418967931837 0 
0.571542606092 -0.00258951230007 0 
0.654836257731 2.69938738029e-09 0 
0.662639823264 3.90845922085e-10 0 
0.66651812499 2.4369950502e-12 0 
0.958099069112 -0.105932005136 0 
0.997082028779 -0.00813700954217 0 
0.5522505528 0.000469804534 0 
0.442461180392 -0.00675865875371 0 
0.55543640385 9.75723381964e-05 0 
0.743365302094 -0.259406670985 0 
0.666598596116 -1.41156669686e-11 0 
0.660632737143 6.6952434565e-11 0 
0.665175720771 3.09371857851e-11 0 
0.459450083601 0.000242089821518 0 
0.665198679876 -2.73437795898e-11 0 
0.538243399811 5.44754151915e-06 0 
0.132510631445 -0.143880520548 0 
0.472756576236 0.00020987907722 0 
0.666253107827 1.28697496743e-11 0 
0.543898018106 -1.18289078906e-06 0 
0.666644741959 -2.65285016177e-12 0 
0.552041520314 -2.38298407673e-07 0 
0.666494513233 5.91773852143e-12 0 
0.666618876352 2.31907233515e-12 0 
0.153401287123 -0.048168502283 0 
0.666663306168 4.55688668237e-13 0 
0.536101795349 -1.02767527613e-08 0 
0.296908083845 -0.0224452840181 0 
0.44560993531 1.64385487729e-05 0 
0.466982264618 -8.56097945497e-07 0 
0.666438946139 2.91749957526e-12 0 
0.84582419205 -0.0457696101338 0 
0.66653192392 -1.23849541733e-12 0 
0.340159165869 -0.00118996243849 0 
0.345489072002 -0.000167146376477 0 
0.7458889437 -0.145923295371 0 
0.523182680941 3.3602905597e-09 0 
0.566217167572 2.58666821381e-10 0 
0.979410659706 0.00137664824606 0 
0.548589594534 3.33328806033e-10 0 
0.529305866301 9.85845389214e-10 0 
0.303811744852 -0.00711817846578 0 
0.459036210514 -4.43324619575e-07 0 
0.649644200239 -0.0037262776843 0 
0.00439787708979 -0.00401916504608 0 
0.612275259928 -0.0476395027708 0 
0.3420046864 0.00016135307679 0 
0.315678798332 0.000180030103447 0 
0.0618000869205 -0.0256572657057 0 
0.436758079906 -5.02597187163e-08 0 
0.346398403971 6.62683063157e-05 0 
0.150716666855 -0.0224826637262 0 
0.443056067044 2.12703869806e-09 0 
0.538197233188 2.65566658044e-10 0 
0.354405574596 2.27593254702e-05 0 
0.578746411077 0.000107725305718 0 
0.0211533447711 -0.0348432728105 0 
0.496548144375 -0.282791135031 0 
0.999814650679 0.00028307837539 0 
0.580532909011 0.000490557465495 0 
0.575843767093 4.54857031403e-06 0 
0.235051995087 -0.00760299441775 0 
0.579337730759 -1.31586422853e-06 0 
0.261950057574 -0.00270701874668 0 
0.607989825628 -3.27309670247e-07 0 
0.16788880358 -0.0138872475171 0 
0.514964141927 -0.00889009367703 0 
0.562548763669 2.04167978023e-10 0 
0.680669617269 -0.101173015176 0 
0.584887045922 5.69376348967e-10 0 
0.537333460888 2.40589770328e-10 0 
0.579960426029 1.73045577867e-10 0 
0.574754936149 3.09690782919e-09 0 
0.58701162607 1.45927239055e-10 0 
0.595082625123 1.17996838641e-10 0 
0.358944281278 2.54257751631e-07 0 
0.480470734952 3.15400816575e-10 0 
0.570097330631 -7.4195807831e-09 0 
0.567035824744 -0.0830453714356 0 
0.582920456484 -2.33741401234e-10 0 
0.46039872294 4.82728537698e-10 0 
0.441040973086 1.50292045475e-09 0 
0.677053218158 -0.00592823352179 0 
0.581445768237 -2.63625365562e-10 0 
0.572702124055 -2.20708253236e-10 0 
0.598534103531 -1.15905507414e-10 0 
0.183321415664 -0.209943798105 0 
0.610381884954 -1.27481086306e-10 0 
0.568743073998 -2.44687398815e-10 0 
0.573301859929 -1.99825470273e-10 0 
0.562350924413 1.10655192355e-10 0 
0.321905646256 2.30514117522e-06 0 
0.600341699965 1.19204855451e-11 0 
0.564730453559 8.78215833389e-11 0 
0.583564750797 -1.7062884608e-10 0 
0.574698767042 6.27169427503e-11 0 
0.0188654442335 -0.0115020115453 0 
0.265569719008 9.36485541518e-05 0 
0.579667848858 3.8801878377e-11 0 
0.649429308372 -0.0490659977648 0 
0.47242306804 2.96825564128e-10 0 
0.341283575237 -5.39361202395e-07 0 
0.58558458711 -1.401603833e-11 0 
0.775725338641 0.000348904159972 0 
0.578677355752 -8.34157616709e-11 0 
0.44158185144 2.75988779199e-10 0 
0.230201722288 -0.000882204058791 0 
0.590386899172 -3.68604313739e-11 0 
0.552016712242 -1.12826914409e-10 0 
0.550044052071 -6.70535849068e-11 0 
0.475324481606 -0.151290076238 0 
0.480008276107 3.42229411177e-05 0 
0.34856364859 -3.88062509515e-07 0 
0.36652386472 -1.30095553386e-07 0 
0.498230022766 1.94063320968e-10 0 
0.236620672912 -0.000203505081626 0 
0.534593772505 2.39332516942e-05 0 
0.35568479357 -0.232018857794 0 
0.507465080076 2.41152875446e-10 0 
0.270711147657 6.68282418012e-05 0 
0.5644943789 0.000194183739852 0 
0.532200362506 2.08860678752e-10 0 
0.54579851689 -0.0316322136983 0 
0.666598525749 0.000609186595337 0 
0.562093617955 0.000248389482635 0 
0.140004639949 -0.0840374710144 0 
0.608189199808 -0.00922897393079 0 
0.291744163491 2.72833962293e-05 0 
0.508301466825 1.6428480798e-10 0 
0.618275356627 -0.000275784573832 0 
0.616478540884 0.000490866272136 0 
0.55464871908 -1.01353246706e-06 0 
0.0573692553311 -0.0122051463985 0 
0.665790595978 5.28751385829e-06 0 
0.666513987187 0.000179306459143 0 
0.339227229593 -5.84621437372e-09 0 
0.591366704989 -0.228170107384 0 
0.0312229841059 -0.0523251763406 0 
0.00708703506859 -0.0072413717178 0 
0.237311215898 9.43978930057e-05 0 
0.504473849021 -5.64596306231e-08 0 
0.313303897814 1.73362387636e-09 0 
0.503730043213 1.35834260339e-10 0 
0.259774711467 6.5390406834e-06 0 
0.580386977931 -0.0207937396111 0 
0.818612587459 0.000589617091745 0 
0.93394600321 0.000765415859807 0 
0.593592993878 -7.28197672828e-07 0 
0.152178127348 -0.00479987930693 0 
0.82838048734 -0.145715153427 0 
0.675627661449 -0.089964620774 0 
0.665922945585 -1.7991636937e-06 0 
0.288616905006 -3.25461625642e-07 0 
0.158173124025 -0.00220864261299 0 
0.502557734626 -3.24646518002e-10 0 
0.593009750179 5.30607803175e-05 0 
0.575090696011 -4.98875385446e-11 0 
0.454793939196 -0.0586742408131 0 
0.571333049566 3.15684783869e-09 0 
0.665753632367 -9.12787939935e-09 0 
0.665427145056 4.79204145919e-09 0 
0.321524110669 -0.108761874003 0 
0.524125009216 -2.36847541579e-10 0 
0.195796110273 7.2977825473e-05 0 
0.514289923032 -2.9146274283e-10 0 
0.602738458907 7.12932639813e-07 0 
0.666438005614 -2.82153520992e-07 0 
0.500399252312 1.12792981161e-10 0 
0.611137842112 0.000446437637554 0 
0.289222439287 -4.14365415036e-08 0 
0.513586214723 8.77495971851e-11 0 
0.310526581353 -2.12135573681e-10 0 
0.0729368033836 -0.0102993047322 0 
0.50237630588 -0.21644042267 0 
0.988784575422 -0.0375187670839 0 
0.181586845111 -0.000261588092647 0 
0.249726550785 -3.26779268595e-07 0 
0.238262040252 2.74247713777e-06 0 
0.132379998515 -0.0054465223508 0 
0.480270422069 -2.2270640887e-10 0 
0.663212021233 1.38171074582e-09 0 
-0.000405987217355 0.000767116950187 0 
0.160026233503 -0.00139474970661 0 
0.320836818468 1.26434002765e-09 0 
0.282087090071 -1.27014462801e-07 0 
0.50312502793 -1.90605857669e-10 0 
0.493721164854 6.17402173467e-11 0 
0.499054048132 -1.68765695863e-10 0 
0.190186897774 1.66394982673e-05 0 
0.362711363886 2.9858896194e-10 0 
0.557475305644 4.0932768286e-09 0 
0.349064884125 3.43035405637e-10 0 
0.332538917951 6.7791658398e-10 0 
0.115587610301 -0.102197835697 0 
0.502824595767 -1.38746226963e-10 0 
0.427595330908 -0.00676385560962 0 
0.609253934457 2.18406171782e-05 0 
0.896942076112 0.000437660924527 0 
0.324503477378 3.03821359261e-10 0 
0.30863520548 4.53017329139e-10 0 
0.585066704084 -5.68470466256e-08 0 
0.495475612849 3.38715267456e-11 0 
0.423121019741 -0.0554398996682 0 
0.508032818679 -1.108582781e-10 0 
0.508787579585 -8.34820783848e-11 0 
0.666050100338 1.08364872631e-10 0 
0.665566882544 2.80648487909e-11 0 
0.475581500955 -0.00193452434614 0 
0.0189350554598 -0.00650305642949 0 
0.623126499614 2.07809491403e-09 0 
0.494934599143 -6.23786398725e-11 0 
0.664009345861 4.32919125387e-11 0 
0.51185967376 -3.49081250017e-11 0 