# vtk DataFile Version 4.1
Exported OTI solution
ASCII
DATASET UNSTRUCTURED_GRID
POINTS 961 double
-0.5 0.5 0.0
-0.5 -0.5 0.0
0.5 0.5 0.0
0.5 -0.5 0.0
-0.5 0.4666666666667591 0.0
-0.5 0.4333333333335183 0.0
-0.5 0.4000000000002774 0.0
-0.5 0.3666666666670365 0.0
-0.5 0.3333333333337957 0.0
-0.5 0.3000000000005548 0.0
-0.5 0.2666666666673139 0.0
-0.5 0.233333333334073 0.0
-0.5 0.2000000000008322 0.0
-0.5 0.1666666666675913 0.0
-0.5 0.1333333333343504 0.0
-0.5 0.1000000000011095 0.0
-0.5 0.06666666666786869 0.0
-0.5 0.03333333333462779 0.0
-0.5 1.376121439022882e-12 0.0
-0.5 -0.03333333333203881 0.0
-0.5 -0.06666666666546461 0.0
-0.5 -0.09999999999889053 0.0
-0.5 -0.1333333333323163 0.0
-0.5 -0.1666666666657421 0.0
-0.5 -0.1999999999991678 0.0
-0.5 -0.2333333333325937 0.0
-0.5 -0.2666666666660195 0.0
-0.5 -0.2999999999994453 0.0
-0.5 -0.3333333333328711 0.0
-0.5 -0.3666666666662969 0.0
-0.5 -0.3999999999997227 0.0
-0.5 -0.4333333333331485 0.0
-0.5 -0.4666666666665743 0.0
-0.4666666666667591 -0.5 0.0
-0.4333333333335183 -0.5 0.0
-0.4000000000002774 -0.5 0.0
-0.3666666666670365 -0.5 0.0
-0.3333333333337957 -0.5 0.0
-0.3000000000005548 -0.5 0.0
-0.2666666666673139 -0.5 0.0
-0.233333333334073 -0.5 0.0
-0.2000000000008322 -0.5 0.0
-0.1666666666675913 -0.5 0.0
-0.1333333333343504 -0.5 0.0
-0.1000000000011095 -0.5 0.0
-0.06666666666786869 -0.5 0.0
-0.03333333333462779 -0.5 0.0
-1.376121439022882e-12 -0.5 0.0
0.03333333333203881 -0.5 0.0
0.06666666666546461 -0.5 0.0
0.09999999999889053 -0.5 0.0
0.1333333333323163 -0.5 0.0
0.1666666666657421 -0.5 0.0
0.1999999999991678 -0.5 0.0
0.2333333333325937 -0.5 0.0
0.2666666666660195 -0.5 0.0
0.2999999999994453 -0.5 0.0
0.3333333333328711 -0.5 0.0
0.3666666666662969 -0.5 0.0
0.3999999999997227 -0.5 0.0
0.4333333333331485 -0.5 0.0
0.4666666666665743 -0.5 0.0
0.5 -0.4666666666667591 0.0
0.5 -0.4333333333335183 0.0
0.5 -0.4000000000002774 0.0
0.5 -0.3666666666670365 0.0
0.5 -0.3333333333337957 0.0
0.5 -0.3000000000005548 0.0
0.5 -0.2666666666673139 0.0
0.5 -0.233333333334073 0.0
0.5 -0.2000000000008322 0.0
0.5 -0.1666666666675913 0.0
0.5 -0.1333333333343504 0.0
0.5 -0.1000000000011095 0.0
0.5 -0.06666666666786869 0.0
0.5 -0.03333333333462779 0.0
0.5 -1.376121439022882e-12 0.0
0.5 0.03333333333203881 0.0
0.5 0.06666666666546461 0.0
0.5 0.09999999999889053 0.0
0.5 0.1333333333323163 0.0
0.5 0.1666666666657421 0.0
0.5 0.1999999999991678 0.0
0.5 0.2333333333325937 0.0
0.5 0.2666666666660195 0.0
0.5 0.2999999999994453 0.0
0.5 0.3333333333328711 0.0
0.5 0.3666666666662969 0.0
0.5 0.3999999999997227 0.0
0.5 0.4333333333331485 0.0
0.5 0.4666666666665743 0.0
0.4666666666667591 0.5 0.0
0.4333333333335183 0.5 0.0
0.4000000000002774 0.5 0.0
0.3666666666670365 0.5 0.0
0.3333333333337957 0.5 0.0
0.3000000000005548 0.5 0.0
0.2666666666673139 0.5 0.0
0.233333333334073 0.5 0.0
0.2000000000008322 0.5 0.0
0.1666666666675913 0.5 0.0
0.1333333333343504 0.5 0.0
0.1000000000011095 0.5 0.0
0.06666666666786869 0.5 0.0
0.03333333333462779 0.5 0.0
1.376121439022882e-12 0.5 0.0
-0.03333333333203881 0.5 0.0
-0.06666666666546461 0.5 0.0
-0.09999999999889053 0.5 0.0
-0.1333333333323163 0.5 0.0
-0.1666666666657421 0.5 0.0
-0.1999999999991678 0.5 0.0
-0.2333333333325937 0.5 0.0
-0.2666666666660195 0.5 0.0
-0.2999999999994453 0.5 0.0
-0.3333333333328711 0.5 0.0
-0.3666666666662969 0.5 0.0
-0.3999999999997227 0.5 0.0
-0.4333333333331485 0.5 0.0
-0.4666666666665743 0.5 0.0
-0.4666666666665805 0.4666666666667529 0.0
-0.4333333333331608 0.4666666666667468 0.0
-0.3999999999997413 0.4666666666667407 0.0
-0.3666666666663215 0.4666666666667344 0.0
-0.3333333333329019 0.4666666666667283 0.0
-0.2999999999994822 0.4666666666667222 0.0
-0.2666666666660626 0.466666666666716 0.0
-0.2333333333326429 0.4666666666667099 0.0
-0.1999999999992234 0.4666666666667036 0.0
-0.1666666666658038 0.4666666666666975 0.0
-0.1333333333323842 0.4666666666666913 0.0
-0.09999999999896453 0.4666666666666852 0.0
-0.06666666666554472 0.4666666666666791 0.0
-0.0333333333321251 0.4666666666666728 0.0
1.284389261613228e-12 0.4666666666666667 0.0
0.0333333333345415 0.4666666666666606 0.0
0.06666666666778856 0.4666666666666544 0.0
0.1000000000010356 0.4666666666666482 0.0
0.1333333333342827 0.466666666666642 0.0
0.1666666666675296 0.4666666666666358 0.0
0.2000000000007767 0.4666666666666297 0.0
0.2333333333340237 0.4666666666666237 0.0
0.2666666666672707 0.4666666666666174 0.0
0.3000000000005177 0.4666666666666113 0.0
0.3333333333337648 0.4666666666666051 0.0
0.3666666666670118 0.466666666666599 0.0
0.4000000000002589 0.4666666666665929 0.0
0.4333333333335059 0.4666666666665866 0.0
0.466666666666753 0.4666666666665805 0.0
-0.4666666666665866 0.433333333333506 0.0
-0.4333333333331731 0.4333333333334937 0.0
-0.3999999999997598 0.4333333333334812 0.0
-0.3666666666663462 0.4333333333334689 0.0
-0.3333333333329328 0.4333333333334566 0.0
-0.2999999999995192 0.4333333333334444 0.0
-0.2666666666661058 0.4333333333334321 0.0
-0.2333333333326923 0.4333333333334197 0.0
-0.1999999999992788 0.4333333333334073 0.0
-0.1666666666658654 0.4333333333333951 0.0
-0.1333333333324519 0.4333333333333826 0.0
-0.09999999999903844 0.4333333333333703 0.0
-0.06666666666562485 0.433333333333358 0.0
-0.03333333333221142 0.4333333333333457 0.0
1.192601573052343e-12 0.4333333333333333 0.0
0.03333333333445521 0.433333333333321 0.0
0.06666666666770846 0.4333333333333087 0.0
0.1000000000009616 0.4333333333332963 0.0
0.1333333333342148 0.4333333333332841 0.0
0.166666666667468 0.4333333333332718 0.0
0.2000000000007213 0.4333333333332594 0.0
0.2333333333339744 0.433333333333247 0.0
0.2666666666672276 0.4333333333332348 0.0
0.3000000000004809 0.4333333333332224 0.0
0.333333333333734 0.4333333333332102 0.0
0.3666666666669872 0.4333333333331978 0.0
0.4000000000002403 0.4333333333331855 0.0
0.4333333333334935 0.4333333333331731 0.0
0.4666666666667468 0.4333333333331608 0.0
-0.4666666666665928 0.4000000000002588 0.0
-0.4333333333331855 0.4000000000002406 0.0
-0.3999999999997782 0.400000000000222 0.0
-0.3666666666663708 0.4000000000002033 0.0
-0.3333333333329637 0.4000000000001849 0.0
-0.2999999999995562 0.4000000000001664 0.0
-0.2666666666661489 0.4000000000001479 0.0
-0.2333333333327415 0.4000000000001295 0.0
-0.1999999999993343 0.400000000000111 0.0
-0.1666666666659271 0.4000000000000924 0.0
-0.1333333333325198 0.400000000000074 0.0
-0.09999999999911241 0.4000000000000555 0.0
-0.06666666666570506 0.400000000000037 0.0
-0.03333333333229771 0.4000000000000185 0.0
1.100897151218305e-12 0.4 0.0
0.03333333333436889 0.3999999999999816 0.0
0.06666666666762827 0.3999999999999629 0.0
0.1000000000008876 0.3999999999999445 0.0
0.133333333334147 0.3999999999999261 0.0
0.1666666666674064 0.3999999999999077 0.0
0.2000000000006658 0.3999999999998891 0.0
0.2333333333339251 0.3999999999998706 0.0
0.2666666666671844 0.3999999999998521 0.0
0.3000000000004438 0.3999999999998336 0.0
0.3333333333337032 0.3999999999998151 0.0
0.3666666666669626 0.3999999999997966 0.0
0.4000000000002218 0.3999999999997782 0.0
0.4333333333334813 0.3999999999997597 0.0
0.4666666666667406 0.3999999999997412 0.0
-0.466666666666599 0.3666666666670118 0.0
-0.4333333333331978 0.3666666666669872 0.0
-0.3999999999997966 0.3666666666669625 0.0
-0.3666666666663955 0.3666666666669379 0.0
-0.3333333333329943 0.3666666666669133 0.0
-0.2999999999995931 0.3666666666668885 0.0
-0.266666666666192 0.3666666666668639 0.0
-0.2333333333327909 0.3666666666668392 0.0
-0.1999999999993898 0.3666666666668147 0.0
-0.1666666666659888 0.36666666666679 0.0
-0.1333333333325876 0.3666666666667653 0.0
-0.0999999999991864 0.3666666666667406 0.0
-0.06666666666578511 0.366666666666716 0.0
-0.03333333333238397 0.3666666666666912 0.0
1.009164973808652e-12 0.3666666666666667 0.0
0.03333333333428259 0.366666666666642 0.0
0.06666666666754817 0.3666666666666174 0.0
0.1000000000008137 0.3666666666665928 0.0
0.1333333333340793 0.3666666666665681 0.0
0.1666666666673448 0.3666666666665435 0.0
0.2000000000006102 0.3666666666665188 0.0
0.2333333333338757 0.3666666666664941 0.0
0.2666666666671412 0.3666666666664694 0.0
0.3000000000004068 0.3666666666664448 0.0
0.3333333333336724 0.3666666666664201 0.0
0.3666666666669379 0.3666666666663955 0.0
0.4000000000002034 0.3666666666663708 0.0
0.4333333333334689 0.3666666666663462 0.0
0.4666666666667344 0.3666666666663215 0.0
-0.4666666666666051 0.3333333333337647 0.0
-0.4333333333332101 0.333333333333734 0.0
-0.3999999999998153 0.3333333333337032 0.0
-0.3666666666664201 0.3333333333336724 0.0
-0.3333333333330252 0.3333333333336416 0.0
-0.2999999999996302 0.3333333333336108 0.0
-0.2666666666662352 0.33333333333358 0.0
-0.2333333333328402 0.3333333333335492 0.0
-0.1999999999994452 0.3333333333335183 0.0
-0.1666666666660504 0.3333333333334874 0.0
-0.1333333333326553 0.3333333333334566 0.0
-0.09999999999926035 0.3333333333334257 0.0
-0.06666666666586527 0.3333333333333951 0.0
-0.03333333333247029 0.3333333333333642 0.0
9.174050408233825e-13 0.3333333333333334 0.0
0.0333333333341963 0.3333333333333025 0.0
0.06666666666746798 0.3333333333332716 0.0
0.1000000000007397 0.3333333333332409 0.0
0.1333333333340114 0.33333333333321 0.0
0.1666666666672831 0.3333333333331793 0.0
0.2000000000005548 0.3333333333331484 0.0
0.2333333333338265 0.3333333333331177 0.0
0.2666666666670982 0.3333333333330869 0.0
0.3000000000003699 0.333333333333056 0.0
0.3333333333336416 0.3333333333330252 0.0
0.3666666666669133 0.3333333333329943 0.0
0.4000000000001849 0.3333333333329634 0.0
0.4333333333334566 0.3333333333329328 0.0
0.4666666666667283 0.3333333333329019 0.0
-0.4666666666666114 0.3000000000005179 0.0
-0.4333333333332224 0.3000000000004809 0.0
-0.3999999999998337 0.3000000000004438 0.0
-0.3666666666664448 0.3000000000004068 0.0
-0.333333333333056 0.30000000000037 0.0
-0.2999999999996671 0.3000000000003328 0.0
-0.2666666666662784 0.3000000000002959 0.0
-0.2333333333328895 0.3000000000002589 0.0
-0.1999999999995007 0.300000000000222 0.0
[...]
POINT_DATA 961
VECTORS u-$Re$ double
0.5 -1.8313083089776617e-44 0 
-1.0831299904204812e-48 1.5117802442792925e-48 0 
0.5 1.0095665942452984e-44 0 
-6.423986958628346e-50 -6.228839104751781e-50 0 
-7.087235771489177e-32 1.1849074620362322e-31 0 
5.36377657538814e-33 1.0420931236538275e-31 0 
-4.445066641491072e-33 7.352106163767455e-32 0 
-1.1404785197609548e-33 5.537394743348348e-32 0 
-5.010791532012081e-34 4.450382831563061e-32 0 
-3.6148741313536124e-34 3.6752376124474285e-32 0 
-2.05868423189635e-34 3.1043736559173653e-32 0 
-1.4066049349049049e-34 2.65806036118351e-32 0 
-1.0053411987993464e-34 2.29441981633934e-32 0 
-7.452716788801858e-35 1.9893644280764395e-32 0 
-5.744428837965528e-35 1.7276716375073252e-32 0 
-4.545891625737281e-35 1.4995617500737205e-32 0 
-3.675294510285375e-35 1.298461532930755e-32 0 
-3.021856313143465e-35 1.1197858892093827e-32 0 
-2.5175901593430936e-35 9.602185075984297e-33 0 
-2.1198901958560146e-35 8.172707380056371e-33 0 
-1.800758248436285e-35 6.890113333643053e-33 0 
-1.5410402545807773e-35 5.739013757537901e-33 0 
-1.3268209222766345e-35 4.706972463532772e-33 0 
-1.1470702726444713e-35 3.7839936474549604e-33 0 
6.591949208711867e-17 -1.8735013540549517e-16 0 
-8.513013711175812e-36 2.2365361467476732e-33 0 
-7.132244303846216e-36 1.6036886091514527e-33 0 
-5.621992802021818e-36 1.063760417035392e-33 0 
-3.767061142294659e-36 6.200407775003722e-34 0 
-1.8214596497756474e-16 -2.2602904790891554e-16 0 
2.2169684879336456e-36 5.1492486925993e-35 0 
6.952315896191496e-36 -5.356901634885173e-35 0 
1.1626752015761655e-35 -4.385667831281044e-35 0 
4.358498831738004e-35 -1.148746988335354e-35 0 
5.09164247796294e-35 -6.517042448769655e-36 0 
-5.916016912898331e-35 -1.2228885141667441e-36 0 
-2.8968941187172892e-34 2.7728875642983936e-36 0 
-6.18730999809303e-34 5.549744791458002e-36 0 
-1.0190574778884534e-33 7.26778717056991e-36 0 
-1.4623876938904348e-33 8.150723707085789e-36 0 
-1.9216098646026804e-33 8.367962620873302e-36 0 
-2.371832772700374e-33 8.053281116371743e-36 0 
-2.790956180571763e-33 7.316121601758037e-36 0 
-3.1600133622653194e-33 6.248271852981756e-36 0 
-3.463367030470576e-33 4.928908325395425e-36 0 
-3.6888124839537796e-33 3.427904178546384e-36 0 
-3.827622802190024e-33 1.8083884808955913e-36 0 
-3.8745619524782716e-33 1.290015525908462e-37 0 
-3.827884732080956e-33 -1.553942086268599e-36 0 
-3.689335214547162e-33 -3.1842990398817865e-36 0 
-3.4641476678352495e-33 -4.7039361646102565e-36 0 
-3.1610459812344176e-33 -6.050550892168364e-36 0 
-2.7922299006321318e-33 -7.155407037450037e-36 0 
-2.3733290440196127e-33 -7.940793015462538e-36 0 
-1.92329839899062e-33 -8.316771119376528e-36 0 
-1.464219608645658e-33 -8.176562487314187e-36 0 
-1.0209541361596171e-33 -7.39120733230898e-36 0 
-6.205463503525504e-34 -5.792532986648467e-36 0 
-2.9116292356276614e-34 -3.213100229846805e-36 0 
-5.978573553380671e-35 5.318607595368234e-37 0 
5.289110422807049e-35 5.241038975367089e-36 0 
4.860356941211929e-35 6.387027571499704e-36 0 
6.50860493371908e-36 4.893275287166313e-35 0 
5.840423756267856e-36 5.570012086112241e-35 0 
1.691718989658645e-36 -5.152871642590506e-35 0 
-1.5799247580986854e-36 -2.798408393244339e-34 0 
-3.9605499253934606e-36 -6.205007590856309e-34 0 
-5.7763637101678735e-36 -1.064057771260424e-33 0 
-7.271850317928222e-36 -1.6037730475161512e-33 0 
-8.658354182891558e-36 -2.236410122513401e-33 0 
-1.0084139084995464e-35 -2.9620073311182522e-33 0 
-1.1665589897384047e-35 -3.783482839063074e-33 0 
-1.3502805182027916e-35 -4.7062759653438045e-33 0 
-1.5694487531822996e-35 -5.7381181095884554e-33 0 
-1.835247440727729e-35 -6.888984744366258e-33 0 
-2.161904958766007e-35 -8.171284345974228e-33 0 
-2.569101145078348e-35 -9.600367803802527e-33 0 
-3.085656413835698e-35 -1.1195493250627745e-32 0 
-3.7555730477973936e-35 -1.298146971701281e-32 0 
-4.6486047887752735e-35 -1.499135050274392e-32 0 
-5.878168776436083e-35 -1.7270797072673956e-32 0 
-7.637973840481001e-35 -1.9885381926724277e-32 0 
-1.0280855036822675e-34 -2.2932615149418099e-32 0 
-1.4392583747896447e-34 -2.656267122397362e-32 0 
3.552713678800501e-15 -6.106226635438361e-16 0 
-3.443930790594074e-34 -3.6724109329899955e-32 0 
-5.562479512028214e-34 -4.4416971226588013e-32 0 
-1.2742069092017625e-33 -5.617682616722039e-32 0 
-2.6168036858251378e-33 -7.28069492747935e-32 0 
-4.520466827397572e-33 -1.1170698915922667e-31 0 
-6.738991825148176e-32 -2.162940139735168e-31 0 
1.0 -3.7815293521212937e-32 0 
1.0 -2.423446212266311e-33 0 
1.0 -3.765361835234702e-33 0 
1.0 -1.0885159169547691e-33 0 
1.0 -4.956465943816666e-34 0 
1.0 -4.884981308350689e-15 0 
1.0 -1.6973660161087959e-34 0 
1.0 -1.0802524169476427e-34 0 
1.0 -7.112748385357895e-35 0 
1.0 -4.774847348029682e-35 0 
1.0 -3.231923132697328e-35 0 
1.0 -2.1381080195644045e-35 0 
1.0 -1.311291202410203e-35 0 
1.0 -6.351742413306141e-36 0 
1.0 -2.814117763909386e-37 0 
1.0 5.764395223821609e-36 0 
1.0 1.2448080541709946e-35 0 
1.0 2.057422031947029e-35 0 
1.0 3.130005596977299e-35 0 
1.0 4.63622687361073e-35 0 
1.0 6.927405952278183e-35 0 
1.0 1.0636170245562859e-34 0 
1.0 1.634362271417377e-34 0 
1.0 3.096503061914886e-34 0 
1.0 1.609823385706477e-15 0 
1.0 1.1102230246251565e-16 0 
1.0 5.457734233441932e-33 0 
1.0 2.364156436682104e-33 0 
1.0 1.802578029320437e-32 0 
0.01217473029878563 0.2677476437706604 0 
0.22614749099060438 0.15174714016772964 0 
0.4202359496952184 0.08878999053207906 0 
0.5341445617263693 0.05448810090321903 0 
0.6125746869672466 0.03608696601523302 0 
0.6679130521653125 0.02525909906950614 0 
0.7079778572542419 0.01831672242832762 0 
0.7377946758039766 0.013593304023168194 0 
0.7602464444142282 0.010196365868146526 0 
0.7771927553489828 0.007634782367183445 0 
0.7898490851025931 0.005616096815565965 0 
0.7990212302776482 0.003954218651270547 0 
0.8052423333888296 0.002523067255097453 0 
0.8088502200627293 0.0012306380515740584 0 
0.810032216519534 3.6022285166487537e-06 0 
0.8088483074709102 -0.0012230382143016416 0 
0.8052382778185367 -0.002514196434263662 0 
0.7990144986663861 -0.003942922366981794 0 
0.7898386753954594 -0.005600612990890104 0 
0.7771772315973351 -0.00761218884765974 0 
0.7602214445681974 -0.010161806723758784 0 
0.7377546734273432 -0.013535265164426935 0 
0.7079284816955101 -0.01821826865907239 0 
0.6676912819267306 -0.025090900499274486 0 
0.6124962699623404 -0.03559344388786957 0 
0.5342958665548387 -0.054083388110547234 0 
0.4099020767769185 -0.08690228925327383 0 
0.26304948920376664 -0.1388215375941708 0 
-0.03867471023116911 -0.3121785945343879 0 
-0.045119025098832755 0.3595868207956502 0 
-0.015558070703974636 0.3177970452993534 0 
0.10095735061960659 0.22919319105875083 0 
0.22175593149279704 0.16182703571220575 0 
0.32082906460668026 0.11606133662033463 0 
0.39939613856978284 0.0852321028592134 0 
0.4607880272666383 0.06381991952712297 0 
0.5086446641002107 0.04838849160895209 0 
0.5458797988141902 0.036845899088664716 0 
0.574636575873078 0.027886910588254692 0 
0.5964662167309195 0.02067072636069625 0 
0.6124705155128913 0.01463101180933546 0 
0.6234119118538359 0.009366038651096765 0 
0.6297886728055108 0.004572290311041079 0 
0.6318823395267886 1.6921575630157726e-06 0 
0.6297838213889101 -0.004568759574515626 0 
0.6234016630980783 -0.009362050579150726 0 
0.6124536824669566 -0.014626207374435672 0 
0.5964406296790618 -0.02066470176645952 0 
0.5745985687852451 -0.0278791239942354 0 
0.5458247314157078 -0.03683638049363966 0 
0.5085567589871396 -0.04837916190168481 0 
0.46066185431675416 -0.06380823650904847 0 
0.39927169567082443 -0.08528171661900215 0 
0.3201426123269036 -0.11619164072227249 0 
0.22312720769425928 -0.16201113773836207 0 
0.10036269596365642 -0.23295510995958763 0 
-0.013820662630592881 -0.32108200672971327 0 
-0.04931720105415366 -0.3367094505930159 0 
-0.03890589171042485 0.2992672538925419 0 
-0.06168585844578886 0.36824720970112707 0 
-0.024805047423454463 0.323693056642258 0 
0.04847950941800879 0.25881653182348074 0 
0.1289044271818689 0.20140096323172368 0 
0.20310865611928364 0.15606332556022062 0 
0.26704128770660446 0.1212124679008515 0 
0.32022831994338286 0.09429166461345904 0 
0.363503761016207 0.07312689250600171 0 
0.39800312798649945 0.05608425255567362 0 
0.42479251851109234 0.04197066301969132 0 
0.44475143106747117 0.02990803535527002 0 
0.45854765085445715 0.019230770000839 0 
0.46664387885033354 0.009410244288595597 0 
0.46931085998760913 -8.877885972042546e-07 0 
0.4666374620493723 -0.009412210443627292 0 
0.45853429215778874 -0.0192333728894337 0 
0.4447300436781645 -0.029911933503142585 0 
0.4247614789717217 -0.04197702014006113 0 
0.39795967044246616 -0.05609525542627264 0 
0.363446595502802 -0.07314607730032047 0 
0.3201589247876075 -0.0943296881784299 0 
0.266930270480445 -0.12127964162881306 0 
0.20318551230491988 -0.1561665109997613 0 
0.12868269240518596 -0.20170792179942384 0 
0.049081798380777725 -0.2587111834542053 0 
-0.023120890479508882 -0.32175755218743163 0 
-0.06590855752338899 -0.36647213111856236 0 
-0.037921969166825775 -0.3029269965680286 0 
-0.027975056012036356 0.25272445218210127 0 
-0.06292828751337326 0.35721892687620843 0 
-0.06578024883057089 0.3610103650813846 0 
-0.03501743609111922 0.3201246981772121 0 
0.014810518767759937 0.26835895258718684 0 
0.07059232751424253 0.21932311501406687 0 
0.12464414527595367 0.17699261267727245 0 
0.17329739933356897 0.14156999380541824 0 
0.21511975526245963 0.11205940364445088 0 
0.24979341508730316 0.08724575106994557 0 
0.27748834498678066 0.06601176561574723 0 
0.2985409177683683 0.047408719190038605 0 
0.313295674694024 0.03064293766539692 0 
0.32202990490962424 0.015038328927842452 0 
0.3249192868511038 -4.637275699313683e-06 0 
0.3220235888311939 -0.015048137214210586 0 
0.3132828488094544 -0.030654449665278274 0 
0.29852124165010485 -0.047423426755992246 0 
0.2774617654364778 -0.06603171099251963 0 
0.24976073204221463 -0.08727413628895746 0 
0.21508139567407755 -0.11209997587573083 0 
0.17327594745982478 -0.14162660006744388 0 
0.12461371790199481 -0.1770770904561491 0 
0.07066753454660982 -0.21938056165750308 0 
0.015064362814763305 -0.26833918630244996 0 
-0.0351112478576054 -0.3201943091744046 0 
-0.06561345678401538 -0.3604156966053931 0 
-0.06401636711980141 -0.3563291399173423 0 
-0.028005322649074158 -0.2543289281767761 0 
-0.020416913397981507 0.2155064981605549 0 
-0.05482567251753154 0.3299404484906493 0 
-0.07492927034748849 0.36344434175254114 0 
-0.07133829828909308 0.3481394341891496 0 
-0.048212924001369756 0.31046747811480563 0 
-0.013683436129720783 0.26616804152352014 0 
0.0251981532560829 0.22276998610219217 0 
0.06369721255943316 0.18318128009141738 0 
0.09903215416884725 0.1480637929604371 0 
0.1297255462584968 0.11710906500285953 0 
0.15507854082368533 0.08965023040753291 0 
0.17481881871420626 0.0649304682068636 0 
0.18888450147105684 0.0422071369650015 0 
0.1972979376127512 0.02078085252486306 0 
0.20009557569236633 -8.300486075387553e-06 0 
0.19729311752955062 -0.020798144155965537 0 
0.1888750883393912 -0.04222655819664167 0 
0.17480543211584443 -0.06495363922340662 0 
0.15506242830729852 -0.0896789115794125 0 
0.12971070563988557 -0.11714496837918847 0 
0.09902080671229921 -0.14810842985374473 0 
0.06370647046011761 -0.18322916152919239 0 
0.02524123520181406 -0.22281300089155878 0 
-0.01363741317756927 -0.2661926119410105 0 
-0.04806253987915463 -0.31033811348305546 0 
-0.07134220493349377 -0.34781266109654774 0 
-0.07522392649184483 -0.36334133996912665 0 
-0.055172611523133526 -0.3301353409361647 0 
-0.020182104059714035 -0.21547265373363217 0 
-0.015670016579308617 0.18508053324393436 0 
-0.04649128985741262 0.298676035356496 0 
-0.07297042419426542 0.34854109998111227 0 
-0.08481764023301692 0.35296356427409625 0 
-0.08086957253046154 0.3305256558387346 0 
-0.06478875777412203 0.2950779092775957 0 
-0.04143400111267455 0.2551529752002713 0 
-0.01503395644844715 0.21529534115178753 0 
0.011316380643108847 0.17756891069723044 0 
0.03556057896032699 0.1426500215593128 0 
0.05641833177779876 0.11049633457450075 0 
0.07313341358083197 0.08071934864497776 0 
0.08528143776792901 0.05277822459600941 0 
0.09263869799057231 0.026073696064593768 0 
0.09510031474587925 -1.11527561254543e-05 0 
0.0926361106214467 -0.026096617578625084 0 
0.08527677544453904 -0.05280296713609734 0 
0.0731279480737778 -0.08074700558672777 0 
0.05641395958885296 -0.11052767804314832 0 
0.035561437108594975 -0.14268457884857977 0 
0.011327281999629096 -0.17760454707079545 0 
-0.015010406477631346 -0.21532575064808548 0 
-0.041381919839859393 -0.2551573435278466 0 
-0.06473559947286939 -0.2950436865162912 0 
-0.08084894454983942 -0.3304578364119916 0 
-0.08484827317128349 -0.35282483354768085 0 
-0.07311202839852644 -0.34841900496048656 0 
-0.046634903920794474 -0.2987614755468031 0 
-0.015518155866359807 -0.18523971663163485 0 
-0.012497995809105485 0.16049929967926974 0 
-0.039611000230954714 0.26808228605864975 0 
-0.06767175013964696 0.32563732873095796 0 
-0.08766579383731746 0.3434611871635046 0 
-0.09628929467858605 0.3340372472894111 0 
-0.09429795545218261 0.3082886992126223 0 
-0.08438653223714265 0.27416279230429735 0 
-0.06965104921879238 0.23673981083596374 0 
-0.05281893058311704 0.19892626170899685 0 
-0.03600411616717766 0.1621780058531706 0 
-0.020724432046905078 0.1270560621678688 0 
-0.008012652795350989 0.09359902808219521 0 
0.001461329473030036 0.06155385314963381 0 
0.007289517127400358 0.03051192589501965 0 
0.009254709079855095 -1.2789541173899895e-05 0 
0.007289198934512056 -0.030537875826918214 0 
0.0014612872790438804 -0.06158082267100046 0 
-0.00801108176143957 -0.09362731260248165 0 
-0.020719264485771702 -0.12708528761348228 0 
-0.035992911808952865 -0.1622064319428212 0 
-0.05279773740976238 -0.1989494161847161 0 
-0.06962075310528676 -0.23675170286882938 0 
-0.08434996747325449 -0.27415384098052886 0 
-0.09426212661623617 -0.308241838451672 0 
-0.09628716373007307 -0.3339619997063677 0 
-0.08771262607526148 -0.34340340264538216 0 
-0.06773521303878108 -0.32562081034494933 0 
-0.039638882380884574 -0.2681154033779688 0 
-0.012408866462865622 -0.16052802931972243 0 
-0.010310447056612037 0.1400040052186693 0 
-0.03417488560380123 0.23962722654923874 0 
-0.06177737821395517 0.29956265098800566 0 
-0.08571335112667663 0.3256638297083677 0 
-0.10210793439596583 0.32616172978329616 0 
-0.11011416702083972 0.30921982563271777 0 
-0.11080477369311516 0.2815583297173175 0 
-0.10610904652314676 0.24805942040193535 0 
-0.09809760717393269 0.21194028554218244 0 
-0.08861225444809115 0.17513233807150064 0 
-0.07913142559947216 0.13866309362012938 0 
-0.070762207835095 0.10296290025595799 0 
-0.06428488328226596 0.06808578792085783 0 
-0.06020869887465019 0.03385966482680024 0 
-0.05881897055434718 -1.3191104150096157e-05 0 
-0.060207203071678914 -0.03388611433287726 0 
-0.06428137704509049 -0.0681123162785116 0 
-0.07075570696954286 -0.10298910329532633 0 
-0.07912047282203583 -0.13868777501828045 0 
-0.08859571223606877 -0.17515326974374917 0 
-0.0980747198116085 -0.21195356316002512 0 
-0.1060807146170463 -0.2480593124234538 0 
-0.11077795879124647 -0.2815414782397949 0 
-0.11009743989448008 -0.3091864257360916 0 
-0.1021099409590469 -0.32611540911672754 0 
-0.08573819118724607 -0.3256256181878345 0 
-0.06180269390405202 -0.299558101192855 0 
-0.03417321375356465 -0.2396466889641822 0 
-0.010250875387392238 -0.1400066913032449 0 
-0.008733248354170473 0.12254927376541708 0 
-0.029879819166548957 0.2135631329899974 0 
-0.05618472716972704 0.2727395472657982 0 
-0.08168264515576434 0.3033836419493798 0 
-0.10260189600270311 0.3108905629111036 0 
-0.1173263523203677 0.3011950597062746 0 
-0.1258663324663982 0.27968430107147013 0 
-0.12919402288468795 0.2506761043658804 0 
-0.1286900302859202 0.21732451172735698 0 
-0.12577749481953454 0.18175753566725164 0 
-0.12172419789571645 0.14529736542418636 0 
-0.11755991094211077 0.10867916000499084 0 
-0.1140590622948687 0.0722343132782736 0 
-0.11175298366477625 0.03603223708968154 0 
-0.11094984413171295 -1.2590330281105072e-05 0 
-0.11175032769280235 -0.03605722025772986 0 
-0.1140534160446359 -0.07225858358127309 0 
-0.11755073039278396 -0.10870185381896891 0 
-0.12171086190894842 -0.14531700997519068 0 
-0.1257597153962351 -0.18177190265950305 0 
-0.12866875259740196 -0.21733094148155388 0 
-0.12917145124326337 -0.25067167562021414 0 
-0.12584680838723164 -0.2796670984642821 0 
-0.11731618336434586 -0.30116837471737784 0 
-0.1026039224668838 -0.31086301171233693 0 
-0.0816926099521943 -0.30336443608656577 0 
-0.056188974720702944 -0.2727342625776886 0 
-0.02986968498568157 -0.21356668205933396 0 
-0.008694517798183643 -0.12254662970729728 0 
-0.007546321273700423 0.10741852844790682 0 
-0.026425003061184782 0.1897931030961007 0 
-0.051121605357979494 0.246373160966383 0 
-0.07683248736817758 0.2789653850753746 0 
-0.10013819025396807 0.29108669500580325 0 
-0.11912775850882791 0.28698656586003296 0 
-0.13317658781656436 0.2708504629401718 0 
-0.14255727456163741 0.24631143781236603 0 
-0.14805017816212993 0.21624846709145312 0 
-0.15063719482944213 0.1827817886386587 0 
-0.15129835483742518 0.14737238909987616 0 
-0.15089540888526629 0.11095876840749334 0 
-0.15011568277452123 0.07409334547092873 0 
-0.14945144658183593 0.03706266491101812 0 
-0.14919649387110476 -1.1326050666540214e-05 0 
-0.14944825556491514 -0.037084941439566435 0 
-0.1501091710228668 -0.07411440783076567 0 
-0.15088541095304764 -0.11097753953855273 0 
-0.15128489183684962 -0.1473874697517585 0 
-0.1506206900248812 -0.1827914332303282 0 
-0.14803189798511465 -0.21625088805450196 0 
-0.14253963305460868 -0.24630565058751866 0 
-0.13316254507708494 -0.2708369075261841 0 
-0.11911996328124987 -0.2869678435696618 0 
-0.10013697065769661 -0.2910683353130694 0 
-0.07683395658160119 -0.27895323459270865 0 
-0.05111757874371292 -0.2463683809162318 0 
-0.026413488799808815 -0.18979100763060763 0 
-0.007520058114252735 -0.10741268146693489 0 
-0.0066176933516572944 0.0941161977820114 0 
-0.023578874215156146 0.1681204508161952 0 
-0.04658531429395037 0.2210626086770917 0 
-0.07173937245399734 0.2538460103569785 0 
-0.09603320365179613 0.2687379333630401 0 
-0.11751180645673617 0.26874888420937326 0 
-0.13520434854128494 0.25706739865862444 0 
-0.1489088462772628 0.23665539228780058 0 
-0.15893372037695697 0.21002452045069175 0 
-0.1658633950023267 0.17916043055647307 0 
-0.17037847115775126 0.145544054637289 0 
-0.17313383222756668 0.11022422487776248 0 
-0.17468443577006842 0.07390983232983751 0 
-0.1754446673129546 0.03706364315170113 0 
-0.17566853400555446 -9.72823294604231e-06 0 
-0.17544142337005567 -0.037082638868322484 0 
-0.1746779751053015 -0.0739274024779062 0 
-0.17312427278251724 -0.1102392878737435 0 
-0.1703661729814593 -0.14555541397712413 0 
-0.16584913588216033 -0.17916690121137524 0 
-0.15891877836057997 -0.21002515605475552 0 
-0.14889501067792854 -0.2366499604438724 0 
-0.13519351063773913 -0.2570570125557674 0 
-0.11750501005592018 -0.2687360481750853 0 
-0.09602961663010935 -0.2687258306036893 0 
-0.07173626114131376 -0.2538372168049356 0 
-0.04657843427842247 -0.22105731834894407 0 
-0.023568646338157875 -0.16811622084413827 0 
-0.006599281552359811 -0.09411044512213601 0 
-0.005864930018303955 0.0823009383733293 0 
-0.021175637085218413 0.14834362848944935 0 
-0.04250737023136676 0.1970985002087174 0 
-0.06666387923148463 0.22891037160014305 0 
-0.09103142299513245 0.2452064311791094 0 
-0.1137341189411228 0.24809626494159986 0 
-0.13363740220591272 0.23997531354505702 0 
-0.150236803993623 0.22320797154479918 0 
-0.16349358277791104 0.19992066430777128 0 
-0.17366499188552656 0.17189890535437424 0 
-0.18115815154611567 0.1405638550694621 0 
-0.1864185715595468 0.10700027389003564 0 
-0.18985274543657527 0.07201251049209428 0 
-0.1917786659750716 0.036192654139548704 0 
-0.19239685770769235 -8.0549068298668e-06 0 