# vtk DataFile Version 4.1
Exported OTI solution
ASCII
DATASET UNSTRUCTURED_GRID
POINTS 105 double
-10.0 2.0 0.0
-10.0 -2.0 0.0
10.0 2.0 0.0
10.0 -2.0 0.0
-10.0 1.0 0.0
-10.0 5.50559597912e-12 0.0
-10.0 -0.999999999997 0.0
-9.0 -2.0 0.0
-8.0 -2.0 0.0
-7.0 -2.0 0.0
-6.0 -2.0 0.0
-5.0 -2.0 0.0
-4.00000000001 -2.0 0.0
-3.00000000001 -2.0 0.0
-2.00000000001 -2.0 0.0
-1.00000000001 -2.0 0.0
-1.22906129718e-11 -2.0 0.0
0.999999999989 -2.0 0.0
1.99999999999 -2.0 0.0
2.99999999999 -2.0 0.0
3.99999999999 -2.0 0.0
4.99999999999 -2.0 0.0
6.0 -2.0 0.0
7.0 -2.0 0.0
8.0 -2.0 0.0
9.0 -2.0 0.0
10.0 -1.0 0.0
10.0 -5.50559597912e-12 0.0
10.0 0.999999999997 0.0
9.0 2.0 0.0
8.0 2.0 0.0
7.0 2.0 0.0
6.0 2.0 0.0
5.0 2.0 0.0
4.00000000001 2.0 0.0
3.00000000001 2.0 0.0
2.00000000001 2.0 0.0
1.00000000001 2.0 0.0
1.22906129718e-11 2.0 0.0
-0.999999999989 2.0 0.0
-1.99999999999 2.0 0.0
-2.99999999999 2.0 0.0
-3.99999999999 2.0 0.0
-4.99999999999 2.0 0.0
-6.0 2.0 0.0
-7.0 2.0 0.0
-8.0 2.0 0.0
-9.0 2.0 0.0
-9.0 1.0 0.0
-8.0 1.0 0.0
-7.0 1.0 0.0
-6.0 1.0 0.0
-5.0 1.0 0.0
-4.0 1.0 0.0
-3.0 1.0 0.0
-2.0 1.0 0.0
-0.999999999995 1.0 0.0
6.14530648591e-12 1.0 0.0
1.00000000001 1.0 0.0
2.00000000001 0.999999999999 0.0
3.00000000001 0.999999999999 0.0
4.0 0.999999999999 0.0
5.0 0.999999999999 0.0
6.0 0.999999999998 0.0
7.0 0.999999999998 0.0
8.0 0.999999999998 0.0
9.0 0.999999999998 0.0
-9.0 4.95508495346e-12 0.0
-8.0 4.40457392781e-12 0.0
-7.0 3.85383391865e-12 0.0
-6.0 3.3033298319e-12 0.0
-5.0 2.75285350071e-12 0.0
-4.0 2.2021828805e-12 0.0
-3.0 1.65173430489e-12 0.0
-2.0 1.10106368468e-12 0.0
-1.0 5.5061510907e-13 0.0
-4.4408920985e-16 6.76607891674e-24 0.0
1.0 -5.50559597906e-13 0.0
2.0 -1.10123021812e-12 0.0
3.0 -1.65167879373e-12 0.0
4.0 -2.20212736934e-12 0.0
5.0 -2.75279798955e-12 0.0
6.0 -3.30335758747e-12 0.0
7.0 -3.85402820768e-12 0.0
8.0 -4.40436576099e-12 0.0
9.0 -4.9550363812e-12 0.0
-9.0 -0.999999999998 0.0
-8.0 -0.999999999998 0.0
-7.0 -0.999999999998 0.0
-6.0 -0.999999999998 0.0
-5.0 -0.999999999999 0.0
-4.0 -0.999999999999 0.0
-3.00000000001 -0.999999999999 0.0
-2.00000000001 -0.999999999999 0.0
-1.00000000001 -1.0 0.0
-6.14686079814e-12 -1.0 0.0
0.999999999995 -1.0 0.0
2.0 -1.0 0.0
3.0 -1.0 0.0
4.0 -1.0 0.0
5.0 -1.0 0.0
6.0 -1.0 0.0
7.0 -1.0 0.0
8.0 -1.0 0.0
9.0 -1.0 0.0
CELLS 80 400 
4 0 4 48 47 
4 47 48 49 46 
4 46 49 50 45 
4 45 50 51 44 
4 44 51 52 43 
4 43 52 53 42 
4 42 53 54 41 
4 41 54 55 40 
4 40 55 56 39 
4 39 56 57 38 
4 38 57 58 37 
4 37 58 59 36 
4 36 59 60 35 
4 35 60 61 34 
4 34 61 62 33 
4 33 62 63 32 
4 32 63 64 31 
4 31 64 65 30 
4 30 65 66 29 
4 29 66 28 2 
4 4 5 67 48 
4 48 67 68 49 
4 49 68 69 50 
4 50 69 70 51 
4 51 70 71 52 
4 52 71 72 53 
4 53 72 73 54 
4 54 73 74 55 
4 55 74 75 56 
4 56 75 76 57 
4 57 76 77 58 
4 58 77 78 59 
4 59 78 79 60 
4 60 79 80 61 
4 61 80 81 62 
4 62 81 82 63 
4 63 82 83 64 
4 64 83 84 65 
4 65 84 85 66 
4 66 85 27 28 
4 5 6 86 67 
4 67 86 87 68 
4 68 87 88 69 
4 69 88 89 70 
4 70 89 90 71 
4 71 90 91 72 
4 72 91 92 73 
4 73 92 93 74 
4 74 93 94 75 
4 75 94 95 76 
4 76 95 96 77 
4 77 96 97 78 
4 78 97 98 79 
4 79 98 99 80 
4 80 99 100 81 
4 81 100 101 82 
4 82 101 102 83 
4 83 102 103 84 
4 84 103 104 85 
4 85 104 26 27 
4 6 1 7 86 
4 86 7 8 87 
4 87 8 9 88 
4 88 9 10 89 
4 89 10 11 90 
4 90 11 12 91 
4 91 12 13 92 
4 92 13 14 93 
4 93 14 15 94 
4 94 15 16 95 
4 95 16 17 96 
4 96 17 18 97 
4 97 18 19 98 
4 98 19 20 99 
4 99 20 21 100 
4 100 21 22 101 
4 101 22 23 102 
4 102 23 24 103 
4 103 24 25 104 
4 104 25 3 26 
CELL_TYPES 80 
9
9
9
9
9
9
9
9
9
9
9
9
9
9
9
9
9
9
9
9
9
9
9
9
9
9
9
9
9
9
9
9
9
9
9
9
9
9
9
9
9
9
9
9
9
9
9
9
9
9
9
9
9
9
9
9
9
9
9
9
9
9
9
9
9
9
9
9
9
9
9
9
9
9
9
9
9
9
9
9
POINT_DATA 105
VECTORS u-$Re$ double
1.27373243212e-28 -2.36570599851e-29 0 
-1.27373243213e-28 -2.36570599852e-29 0 
0.000933829345458 -0.00724954326596 0 
-0.00093382934546 -0.00724954326596 0 
7.26267567874e-29 -1e-29 0 
2.10430187791e-40 3.65705998514e-30 0 
-7.26267567874e-29 -9.99999999998e-30 0 
-0.000143773736966 -0.000104230160881 0 
-0.000251718409095 -0.000200681129523 0 
-0.000362933685547 -0.000389225659004 0 
-0.000458099890645 -0.000594390705921 0 
-0.000541885308816 -0.000879027417086 0 
-0.000615692950062 -0.00116490836398 0 
-0.000679450392232 -0.00152158173857 0 
-0.000734107190455 -0.00186937213171 0 
-0.000780352449852 -0.00227873178171 0 
-0.000818864305822 -0.0026708585333 0 
-0.000850356795766 -0.00311680945176 0 
-0.000875529869051 -0.00353850575905 0 
-0.000895085136048 -0.00400770910853 0 
-0.000909725805183 -0.00444703946433 0 
-0.000920152532732 -0.00492896272299 0 
-0.000927067647064 -0.00537679615341 0 
-0.000931184256417 -0.00586371787297 0 
-0.000933164239219 -0.00631375093317 0 
-0.000933762458171 -0.0068006780789 0 
-0.000466714952526 -0.0072680637901 0 
-3.26301485831e-15 -0.00724921071284 0 
0.000466714952525 -0.0072680637901 0 
0.000933762458173 -0.0068006780789 0 
0.000933164239218 -0.00631375093317 0 
0.000931184256418 -0.00586371787297 0 
0.000927067647063 -0.00537679615341 0 
0.000920152532733 -0.004928962723 0 
0.000909725805182 -0.00444703946434 0 
0.000895085136049 -0.00400770910854 0 
0.000875529869051 -0.00353850575906 0 
0.000850356795768 -0.00311680945177 0 
0.000818864305822 -0.00267085853331 0 
0.000780352449853 -0.00227873178172 0 
0.000734107190456 -0.00186937213172 0 
0.000679450392233 -0.00152158173858 0 
0.000615692950063 -0.00116490836399 0 
0.000541885308817 -0.000879027417089 0 
0.000458099890646 -0.000594390705922 0 
0.000362933685547 -0.000389225659005 0 
0.000251718409095 -0.000200681129523 0 
0.000143773736966 -0.000104230160881 0 
5.12124190115e-05 -4.5736860608e-05 0 
0.000122741358446 -0.000184623661584 0 
0.000173964268919 -0.000341840659649 0 
0.000221969642503 -0.000586553024722 0 
0.000264855628593 -0.000837211342768 0 
0.000301932986111 -0.00116348537952 0 
0.000334267480807 -0.00148550217908 0 
0.000362029085085 -0.00187324063369 0 
0.000385560781039 -0.00224758141619 0 
0.000405238808615 -0.00267923063898 0 
0.000421404446007 -0.00308975427125 0 
0.000434409994491 -0.00355056482545 0 
0.000444607239426 -0.00398393062624 0 
0.000452346388181 -0.00446196578683 0 
0.000457979988668 -0.00490764120622 0 
0.000461858047138 -0.00539377229928 0 
0.000464324158901 -0.00584403368486 0 
0.000465765195495 -0.00633194441236 0 
0.000466466859015 -0.00678186301175 0 
2.67285481671e-16 -4.31555691549e-05 0 
5.54808274517e-16 -0.000154632668431 0 
6.91717597914e-16 -0.000351639570795 0 
6.97853504584e-16 -0.000558540512781 0 
7.60716901797e-16 -0.000848153317366 0 
5.66929315993e-16 -0.00113800731774 0 
6.26045439447e-16 -0.00149827225776 0 
2.38470267838e-16 -0.00184951491903 0 
3.63207727783e-16 -0.00226200953484 0 
-2.21990394816e-16 -0.00265700109334 0 
1.5287250632e-17 -0.00310554782146 0 
-7.75150343219e-16 -0.00352956468962 0 
-3.81910215258e-16 -0.00400081617222 0 
-1.37444309406e-15 -0.00444192167459 0 
-8.00032783077e-16 -0.00492534496266 0 
-2.00219615193e-15 -0.00537441238306 0 
-1.22254636969e-15 -0.00586228646249 0 
-2.63429957102e-15 -0.00631297091913 0 
-1.63606798801e-15 -0.00680044755772 0 
-5.12124190112e-05 -4.57368606079e-05 0 
-0.000122741358445 -0.000184623661584 0 
-0.000173964268918 -0.000341840659649 0 
-0.000221969642502 -0.000586553024721 0 
-0.000264855628592 -0.000837211342767 0 
-0.00030193298611 -0.00116348537952 0 
-0.000334267480807 -0.00148550217908 0 
-0.000362029085084 -0.00187324063369 0 
-0.000385560781039 -0.00224758141618 0 
-0.000405238808615 -0.00267923063897 0 
-0.000421404446007 -0.00308975427124 0 
-0.00043440999449 -0.00355056482545 0 
-0.000444607239427 -0.00398393062624 0 
-0.000452346388181 -0.00446196578682 0 
-0.00045797998867 -0.00490764120622 0 
-0.000461858047138 -0.00539377229928 0 
-0.000464324158904 -0.00584403368486 0 
-0.000465765195495 -0.00633194441236 0 
-0.000466466859019 -0.00678186301175 0 
VECTORS u-$\epsilon_1$ double
0.0 0.0 0 
0.0 0.0 0 
0.0 0.0 0 
0.0 0.0 0 
0.0 0.0 0 
0.0 0.0 0 
0.0 0.0 0 
0.0 0.0 0 
0.0 0.0 0 
0.0 0.0 0 
0.0 0.0 0 
0.0 0.0 0 
0.0 0.0 0 
0.0 0.0 0 
0.0 0.0 0 
0.0 0.0 0 
0.0 0.0 0 
0.0 0.0 0 
0.0 0.0 0 
0.0 0.0 0 
0.0 0.0 0 
0.0 0.0 0 
0.0 0.0 0 
0.0 0.0 0 
0.0 0.0 0 
0.0 0.0 0 
0.0 0.0 0 
0.0 0.0 0 
0.0 0.0 0 
0.0 0.0 0 
0.0 0.0 0 
0.0 0.0 0 
0.0 0.0 0 
0.0 0.0 0 
0.0 0.0 0 
0.0 0.0 0 
0.0 0.0 0 
0.0 0.0 0 
0.0 0.0 0 
0.0 0.0 0 
0.0 0.0 0 
0.0 0.0 0 
0.0 0.0 0 
0.0 0.0 0 
0.0 0.0 0 
0.0 0.0 0 
0.0 0.0 0 
0.0 0.0 0 
0.0 0.0 0 
0.0 0.0 0 
0.0 0.0 0 
0.0 0.0 0 
0.0 0.0 0 
0.0 0.0 0 
0.0 0.0 0 
0.0 0.0 0 
0.0 0.0 0 
0.0 0.0 0 
0.0 0.0 0 
0.0 0.0 0 
0.0 0.0 0 
0.0 0.0 0 
0.0 0.0 0 
0.0 0.0 0 
0.0 0.0 0 
0.0 0.0 0 
0.0 0.0 0 
0.0 0.0 0 
0.0 0.0 0 
0.0 0.0 0 
0.0 0.0 0 
0.0 0.0 0 
0.0 0.0 0 
0.0 0.0 0 
0.0 0.0 0 
0.0 0.0 0 
0.0 0.0 0 
0.0 0.0 0 
0.0 0.0 0 
0.0 0.0 0 
0.0 0.0 0 
0.0 0.0 0 
0.0 0.0 0 
0.0 0.0 0 
0.0 -0.0 0 
0.0 0.0 0 
0.0 0.0 0 
0.0 0.0 0 
0.0 0.0 0 
0.0 0.0 0 
0.0 0.0 0 
0.0 0.0 0 
0.0 0.0 0 
0.0 0.0 0 
0.0 0.0 0 
0.0 0.0 0 
0.0 0.0 0 
0.0 0.0 0 
0.0 0.0 0 
0.0 0.0 0 
0.0 0.0 0 
0.0 0.0 0 
0.0 0.0 0 
0.0 0.0 0 
0.0 0.0 0 
