# vtk DataFile Version 4.1

ASCII
DATASET POLYDATA

POINTS 231 DOUBLE
1 0 0
1.025 0 0
1.05 0 0
1.075 0 0
1.1 0 0
1.125 0 0
1.15 0 0
1.175 0 0
1.2 0 0
1.225 0 0
1.25 0 0
1.275 0 0
1.3 0 0
1.325 0 0
1.35 0 0
1.375 0 0
1.4 0 0
1.425 0 0
1.45 0 0
1.475 0 0
1.5 0 0
1 0.1 0
1.025 0.1 0
1.05 0.1 0
1.075 0.1 0
1.1 0.1 0
1.125 0.1 0
1.15 0.1 0
1.175 0.1 0
1.2 0.1 0
1.225 0.1 0
1.25 0.1 0
1.275 0.1 0
1.3 0.1 0
1.325 0.1 0
1.35 0.1 0
1.375 0.1 0
1.4 0.1 0
1.425 0.1 0
1.45 0.1 0
1.475 0.1 0
1.5 0.1 0
1 0.2 0
1.025 0.2 0
1.05 0.2 0
1.075 0.2 0
1.1 0.2 0
1.125 0.2 0
1.15 0.2 0
1.175 0.2 0
1.2 0.2 0
1.225 0.2 0
1.25 0.2 0
1.275 0.2 0
1.3 0.2 0
1.325 0.2 0
1.35 0.2 0
1.375 0.2 0
1.4 0.2 0
1.425 0.2 0
1.45 0.2 0
1.475 0.2 0
1.5 0.2 0
1 0.3 0
1.025 0.3 0
1.05 0.3 0
1.075 0.3 0
1.1 0.3 0
1.125 0.3 0
1.15 0.3 0
1.175 0.3 0
1.2 0.3 0
1.225 0.3 0
1.25 0.3 0
1.275 0.3 0
1.3 0.3 0
1.325 0.3 0
1.35 0.3 0
1.375 0.3 0
1.4 0.3 0
1.425 0.3 0
1.45 0.3 0
1.475 0.3 0
1.5 0.3 0
1 0.4 0
1.025 0.4 0
1.05 0.4 0
1.075 0.4 0
1.1 0.4 0
1.125 0.4 0
1.15 0.4 0
1.175 0.4 0
1.2 0.4 0
1.225 0.4 0
1.25 0.4 0
1.275 0.4 0
1.3 0.4 0
1.325 0.4 0
1.35 0.4 0
1.375 0.4 0
1.4 0.4 0
1.425 0.4 0
1.45 0.4 0
1.475 0.4 0
1.5 0.4 0
1 0.5 0
1.025 0.5 0
1.05 0.5 0
1.075 0.5 0
1.1 0.5 0
1.125 0.5 0
1.15 0.5 0
1.175 0.5 0
1.2 0.5 0
1.225 0.5 0
1.25 0.5 0
1.275 0.5 0
1.3 0.5 0
1.325 0.5 0
1.35 0.5 0
1.375 0.5 0
1.4 0.5 0
1.425 0.5 0
1.45 0.5 0
1.475 0.5 0
1.5 0.5 0
1 0.6 0
1.025 0.6 0
1.05 0.6 0
1.075 0.6 0
1.1 0.6 0
1.125 0.6 0
1.15 0.6 0
1.175 0.6 0
1.2 0.6 0
1.225 0.6 0
1.25 0.6 0
1.275 0.6 0
1.3 0.6 0
1.325 0.6 0
1.35 0.6 0
1.375 0.6 0
1.4 0.6 0
1.425 0.6 0
1.45 0.6 0
1.475 0.6 0
1.5 0.6 0
1 0.7 0
1.025 0.7 0
1.05 0.7 0
1.075 0.7 0
1.1 0.7 0
1.125 0.7 0
1.15 0.7 0
1.175 0.7 0
1.2 0.7 0
1.225 0.7 0
1.25 0.7 0
1.275 0.7 0
1.3 0.7 0
1.325 0.7 0
1.35 0.7 0
1.375 0.7 0
1.4 0.7 0
1.425 0.7 0
1.45 0.7 0
1.475 0.7 0
1.5 0.7 0
1 0.8 0
1.025 0.8 0
1.05 0.8 0
1.075 0.8 0
1.1 0.8 0
1.125 0.8 0
1.15 0.8 0
1.175 0.8 0
1.2 0.8 0
1.225 0.8 0
1.25 0.8 0
1.275 0.8 0
1.3 0.8 0
1.325 0.8 0
1.35 0.8 0
1.375 0.8 0
1.4 0.8 0
1.425 0.8 0
1.45 0.8 0
1.475 0.8 0
1.5 0.8 0
1 0.9 0
1.025 0.9 0
1.05 0.9 0
1.075 0.9 0
1.1 0.9 0
1.125 0.9 0
1.15 0.9 0
1.175 0.9 0
1.2 0.9 0
1.225 0.9 0
1.25 0.9 0
1.275 0.9 0
1.3 0.9 0
1.325 0.9 0
1.35 0.9 0
1.375 0.9 0
1.4 0.9 0
1.425 0.9 0
1.45 0.9 0
1.475 0.9 0
1.5 0.9 0
1 1 0
1.025 1 0
1.05 1 0
1.075 1 0
1.1 1 0
1.125 1 0
1.15 1 0
1.175 1 0
1.2 1 0
1.225 1 0
1.25 1 0
1.275 1 0
1.3 1 0
1.325 1 0
1.35 1 0
1.375 1 0
1.4 1 0
1.425 1 0
1.45 1 0
1.475 1 0
1.5 1 0

POLYGONS 400 1600
3 0 1 22
3 0 22 21
3 1 2 23
3 1 23 22
3 2 3 24
3 2 24 23
3 3 4 25
3 3 25 24
3 4 5 26
3 4 26 25
3 5 6 27
3 5 27 26
3 6 7 28
3 6 28 27
3 7 8 29
3 7 29 28
3 8 9 30
3 8 30 29
3 9 10 31
3 9 31 30
3 10 11 32
3 10 32 31
3 11 12 33
3 11 33 32
3 12 13 34
3 12 34 33
3 13 14 35
3 13 35 34
3 14 15 36
3 14 36 35
3 15 16 37
3 15 37 36
3 16 17 38
3 16 38 37
3 17 18 39
3 17 39 38
3 18 19 40
3 18 40 39
3 19 20 41
3 19 41 40
3 21 22 43
3 21 43 42
3 22 23 44
3 22 44 43
3 23 24 45
3 23 45 44
3 24 25 46
3 24 46 45
3 25 26 47
3 25 47 46
3 26 27 48
3 26 48 47
3 27 28 49
3 27 49 48
3 28 29 50
3 28 50 49
3 29 30 51
3 29 51 50
3 30 31 52
3 30 52 51
3 31 32 53
3 31 53 52
3 32 33 54
3 32 54 53
3 33 34 55
3 33 55 54
3 34 35 56
3 34 56 55
3 35 36 57
3 35 57 56
3 36 37 58
3 36 58 57
3 37 38 59
3 37 59 58
3 38 39 60
3 38 60 59
3 39 40 61
3 39 61 60
3 40 41 62
3 40 62 61
3 42 43 64
3 42 64 63
3 43 44 65
3 43 65 64
3 44 45 66
3 44 66 65
3 45 46 67
3 45 67 66
3 46 47 68
3 46 68 67
3 47 48 69
3 47 69 68
3 48 49 70
3 48 70 69
3 49 50 71
3 49 71 70
3 50 51 72
3 50 72 71
3 51 52 73
3 51 73 72
3 52 53 74
3 52 74 73
3 53 54 75
3 53 75 74
3 54 55 76
3 54 76 75
3 55 56 77
3 55 77 76
3 56 57 78
3 56 78 77
3 57 58 79
3 57 79 78
3 58 59 80
3 58 80 79
3 59 60 81
3 59 81 80
3 60 61 82
3 60 82 81
3 61 62 83
3 61 83 82
3 63 64 85
3 63 85 84
3 64 65 86
3 64 86 85
3 65 66 87
3 65 87 86
3 66 67 88
3 66 88 87
3 67 68 89
3 67 89 88
3 68 69 90
3 68 90 89
3 69 70 91
3 69 91 90
3 70 71 92
3 70 92 91
3 71 72 93
3 71 93 92
3 72 73 94
3 72 94 93
3 73 74 95
3 73 95 94
3 74 75 96
3 74 96 95
3 75 76 97
3 75 97 96
3 76 77 98
3 76 98 97
3 77 78 99
3 77 99 98
3 78 79 100
3 78 100 99
3 79 80 101
3 79 101 100
3 80 81 102
3 80 102 101
3 81 82 103
3 81 103 102
3 82 83 104
3 82 104 103
3 84 85 106
3 84 106 105
3 85 86 107
3 85 107 106
3 86 87 108
3 86 108 107
3 87 88 109
3 87 109 108
3 88 89 110
3 88 110 109
3 89 90 111
3 89 111 110
3 90 91 112
3 90 112 111
3 91 92 113
3 91 113 112
3 92 93 114
3 92 114 113
3 93 94 115
3 93 115 114
3 94 95 116
3 94 116 115
3 95 96 117
3 95 117 116
3 96 97 118
3 96 118 117
3 97 98 119
3 97 119 118
3 98 99 120
3 98 120 119
3 99 100 121
3 99 121 120
3 100 101 122
3 100 122 121
3 101 102 123
3 101 123 122
3 102 103 124
3 102 124 123
3 103 104 125
3 103 125 124
3 105 106 127
3 105 127 126
3 106 107 128
3 106 128 127
3 107 108 129
3 107 129 128
3 108 109 130
3 108 130 129
3 109 110 131
3 109 131 130
3 110 111 132
3 110 132 131
3 111 112 133
3 111 133 132
3 112 113 134
3 112 134 133
3 113 114 135
3 113 135 134
3 114 115 136
3 114 136 135
3 115 116 137
3 115 137 136
3 116 117 138
3 116 138 137
3 117 118 139
3 117 139 138
3 118 119 140
3 118 140 139
3 119 120 141
3 119 141 140
3 120 121 142
3 120 142 141
3 121 122 143
3 121 143 142
3 122 123 144
3 122 144 143
3 123 124 145
3 123 145 144
3 124 125 146
3 124 146 145
3 126 127 148
3 126 148 147
3 127 128 149
3 127 149 148
3 128 129 150
3 128 150 149
3 129 130 151
3 129 151 150
3 130 131 152
3 130 152 151
3 131 132 153
3 131 153 152
3 132 133 154
3 132 154 153
3 133 134 155
3 133 155 154
3 134 135 156
3 134 156 155
3 135 136 157
3 135 157 156
3 136 137 158
3 136 158 157
3 137 138 159
3 137 159 158
3 138 139 160
3 138 160 159
3 139 140 161
3 139 161 160
3 140 141 162
3 140 162 161
3 141 142 163
3 141 163 162
3 142 143 164
3 142 164 163
3 143 144 165
3 143 165 164
3 144 145 166
3 144 166 165
3 145 146 167
3 145 167 166
3 147 148 169
3 147 169 168
3 148 149 170
3 148 170 169
3 149 150 171
3 149 171 170
3 150 151 172
3 150 172 171
3 151 152 173
3 151 173 172
3 152 153 174
3 152 174 173
3 153 154 175
3 153 175 174
3 154 155 176
3 154 176 175
3 155 156 177
3 155 177 176
3 156 157 178
3 156 178 177
3 157 158 179
3 157 179 178
3 158 159 180
3 158 180 179
3 159 160 181
3 159 181 180
3 160 161 182
3 160 182 181
3 161 162 183
3 161 183 182
3 162 163 184
3 162 184 183
3 163 164 185
3 163 185 184
3 164 165 186
3 164 186 185
3 165 166 187
3 165 187 186
3 166 167 188
3 166 188 187
3 168 169 190
3 168 190 189
3 169 170 191
3 169 191 190
3 170 171 192
3 170 192 191
3 171 172 193
3 171 193 192
3 172 173 194
3 172 194 193
3 173 174 195
3 173 195 194
3 174 175 196
3 174 196 195
3 175 176 197
3 175 197 196
3 176 177 198
3 176 198 197
3 177 178 199
3 177 199 198
3 178 179 200
3 178 200 199
3 179 180 201
3 179 201 200
3 180 181 202
3 180 202 201
3 181 182 203
3 181 203 202
3 182 183 204
3 182 204 203
3 183 184 205
3 183 205 204
3 184 185 206
3 184 206 205
3 185 186 207
3 185 207 206
3 186 187 208
3 186 208 207
3 187 188 209
3 187 209 208
3 189 190 211
3 189 211 210
3 190 191 212
3 190 212 211
3 191 192 213
3 191 213 212
3 192 193 214
3 192 214 213
3 193 194 215
3 193 215 214
3 194 195 216
3 194 216 215
3 195 196 217
3 195 217 216
3 196 197 218
3 196 218 217
3 197 198 219
3 197 219 218
3 198 199 220
3 198 220 219
3 199 200 221
3 199 221 220
3 200 201 222
3 200 222 221
3 201 202 223
3 201 223 222
3 202 203 224
3 202 224 223
3 203 204 225
3 203 225 224
3 204 205 226
3 204 226 225
3 205 206 227
3 205 227 226
3 206 207 228
3 206 228 227
3 207 208 229
3 207 229 228
3 208 209 230
3 208 230 229

POINT_DATA 231
SCALARS Theta double
LOOKUP_TABLE default
1.47625
1.47789
1.47651
1.47214
1.46483
1.45463
1.44159
1.42575
1.40716
1.38587
1.36192
1.33535
1.3062
1.2745
1.2403
1.20361
1.16447
1.1229
1.07892
1.03253
0.983754
1.47498
1.47704
1.47593
1.47174
1.46456
1.45444
1.44145
1.42565
1.40709
1.38583
1.3619
1.33535
1.30622
1.27455
1.24038
1.20374
1.16466
1.12318
1.07933
1.03314
0.984658
1.4746
1.47668
1.47561
1.47147
1.46433
1.45425
1.4413
1.42554
1.40701
1.38577
1.36187
1.33535
1.30624
1.2746
1.24046
1.20385
1.1648
1.12335
1.07953
1.03337
0.984894
1.47441
1.47649
1.47543
1.47131
1.46418
1.45412
1.4412
1.42545
1.40694
1.38573
1.36184
1.33534
1.30625
1.27463
1.2405
1.2039
1.16487
1.12343
1.07962
1.03347
0.98499
1.4743
1.47638
1.47532
1.4712
1.46409
1.45404
1.44112
1.42539
1.40689
1.38568
1.36181
1.33532
1.30625
1.27463
1.24051
1.20392
1.1649
1.12347
1.07966
1.03351
0.985032
1.47421
1.47629
1.47524
1.47112
1.46401
1.45397
1.44106
1.42533
1.40684
1.38565
1.36178
1.3353
1.30623
1.27463
1.24051
1.20393
1.16491
1.12349
1.07968
1.03353
0.985053
1.47412
1.4762
1.47515
1.47104
1.46393
1.4539
1.44099
1.42528
1.4068
1.38561
1.36175
1.33528
1.30622
1.27462
1.24052
1.20394
1.16493
1.1235
1.0797
1.03355
0.985074
1.474
1.47609
1.47504
1.47093
1.46383
1.45381
1.44092
1.42521
1.40674
1.38557
1.36172
1.33526
1.30621
1.27463
1.24053
1.20396
1.16496
1.12354
1.07974
1.03359
0.985115
1.47381
1.4759
1.47486
1.47077
1.46369
1.45368
1.44081
1.42512
1.40668
1.38552
1.3617
1.33525
1.30622
1.27465
1.24057
1.20402
1.16503
1.12362
1.07983
1.03369
0.985211
1.47343
1.47554
1.47454
1.4705
1.46346
1.4535
1.44066
1.42501
1.40659
1.38547
1.36167
1.33525
1.30625
1.2747
1.24065
1.20413
1.16517
1.12379
1.08004
1.03392
0.985448
1.47216
1.47469
1.47397
1.4701
1.46319
1.4533
1.44053
1.42491
1.40653
1.38542
1.36165
1.33525
1.30627
1.27475
1.24073
1.20426
1.16536
1.12408
1.08045
1.03453
0.986354
SCALARS ThetaAnalytic double
LOOKUP_TABLE default
1.47412
1.47622
1.47517
1.47106
1.46395
1.45391
1.44101
1.42529
1.40681
1.38561
1.36175
1.33527
1.30621
1.27461
1.2405
1.20392
1.16491
1.12348
1.07968
1.03353
0.985058
1.47412
1.47622
1.47517
1.47106
1.46395
1.45391
1.44101
1.42529
1.40681
1.38561
1.36175
1.33527
1.30621
1.27461
1.2405
1.20392
1.16491
1.12348
1.07968
1.03353
0.985058
1.47412
1.47622
1.47517
1.47106
1.46395
1.45391
1.44101
1.42529
1.40681
1.38561
1.36175
1.33527
1.30621
1.27461
1.2405
1.20392
1.16491
1.12348
1.07968
1.03353
0.985058
1.47412
1.47622
1.47517
1.47106
1.46395
1.45391
1.44101
1.42529
1.40681
1.38561
1.36175
1.33527
1.30621
1.27461
1.2405
1.20392
1.16491
1.12348
1.07968
1.03353
0.985058
1.47412
1.47622
1.47517
1.47106
1.46395
1.45391
1.44101
1.42529
1.40681
1.38561
1.36175
1.33527
1.30621
1.27461
1.2405
1.20392
1.16491
1.12348
1.07968
1.03353
0.985058
1.47412
1.47622
1.47517
1.47106
1.46395
1.45391
1.44101
1.42529
1.40681
1.38561
1.36175
1.33527
1.30621
1.27461
1.2405
1.20392
1.16491
1.12348
1.07968
1.03353
0.985058
1.47412
1.47622
1.47517
1.47106
1.46395
1.45391
1.44101
1.42529
1.40681
1.38561
1.36175
1.33527
1.30621
1.27461
1.2405
1.20392
1.16491
1.12348
1.07968
1.03353
0.985058
1.47412
1.47622
1.47517
1.47106
1.46395
1.45391
1.44101
1.42529
1.40681
1.38561
1.36175
1.33527
1.30621
1.27461
1.2405
1.20392
1.16491
1.12348
1.07968
1.03353
0.985058
1.47412
1.47622
1.47517
1.47106
1.46395
1.45391
1.44101
1.42529
1.40681
1.38561
1.36175
1.33527
1.30621
1.27461
1.2405
1.20392
1.16491
1.12348
1.07968
1.03353
0.985058
1.47412
1.47622
1.47517
1.47106
1.46395
1.45391
1.44101
1.42529
1.40681
1.38561
1.36175
1.33527
1.30621
1.27461
1.2405
1.20392
1.16491
1.12348
1.07968
1.03353
0.985058
1.47412
1.47622
1.47517
1.47106
1.46395
1.45391
1.44101
1.42529
1.40681
1.38561
1.36175
1.33527
1.30621
1.27461
1.2405
1.20392
1.16491
1.12348
1.07968
1.03353
0.985058
VECTORS vec_T double
 0 0 1.47625
 0 0 1.47789
 0 0 1.47651
 0 0 1.47214
 0 0 1.46483
 0 0 1.45463
 0 0 1.44159
 0 0 1.42575
 0 0 1.40716
 0 0 1.38587
 0 0 1.36192
 0 0 1.33535
 0 0 1.3062
 0 0 1.2745
 0 0 1.2403
 0 0 1.20361
 0 0 1.16447
 0 0 1.1229
 0 0 1.07892
 0 0 1.03253
 0 0 0.983754
 0 0 1.47498
 0 0 1.47704
 0 0 1.47593
 0 0 1.47174
 0 0 1.46456
 0 0 1.45444
 0 0 1.44145
 0 0 1.42565
 0 0 1.40709
 0 0 1.38583
 0 0 1.3619
 0 0 1.33535
 0 0 1.30622
 0 0 1.27455
 0 0 1.24038
 0 0 1.20374
 0 0 1.16466
 0 0 1.12318
 0 0 1.07933
 0 0 1.03314
 0 0 0.984658
 0 0 1.4746
 0 0 1.47668
 0 0 1.47561
 0 0 1.47147
 0 0 1.46433
 0 0 1.45425
 0 0 1.4413
 0 0 1.42554
 0 0 1.40701
 0 0 1.38577
 0 0 1.36187
 0 0 1.33535
 0 0 1.30624
 0 0 1.2746
 0 0 1.24046
 0 0 1.20385
 0 0 1.1648
 0 0 1.12335
 0 0 1.07953
 0 0 1.03337
 0 0 0.984894
 0 0 1.47441
 0 0 1.47649
 0 0 1.47543
 0 0 1.47131
 0 0 1.46418
 0 0 1.45412
 0 0 1.4412
 0 0 1.42545
 0 0 1.40694
 0 0 1.38573
 0 0 1.36184
 0 0 1.33534
 0 0 1.30625
 0 0 1.27463
 0 0 1.2405
 0 0 1.2039
 0 0 1.16487
 0 0 1.12343
 0 0 1.07962
 0 0 1.03347
 0 0 0.98499
 0 0 1.4743
 0 0 1.47638
 0 0 1.47532
 0 0 1.4712
 0 0 1.46409
 0 0 1.45404
 0 0 1.44112
 0 0 1.42539
 0 0 1.40689
 0 0 1.38568
 0 0 1.36181
 0 0 1.33532
 0 0 1.30625
 0 0 1.27463
 0 0 1.24051
 0 0 1.20392
 0 0 1.1649
 0 0 1.12347
 0 0 1.07966
 0 0 1.03351
 0 0 0.985032
 0 0 1.47421
 0 0 1.47629
 0 0 1.47524
 0 0 1.47112
 0 0 1.46401
 0 0 1.45397
 0 0 1.44106
 0 0 1.42533
 0 0 1.40684
 0 0 1.38565
 0 0 1.36178
 0 0 1.3353
 0 0 1.30623
 0 0 1.27463
 0 0 1.24051
 0 0 1.20393
 0 0 1.16491
 0 0 1.12349
 0 0 1.07968
 0 0 1.03353
 0 0 0.985053
 0 0 1.47412
 0 0 1.4762
 0 0 1.47515
 0 0 1.47104
 0 0 1.46393
 0 0 1.4539
 0 0 1.44099
 0 0 1.42528
 0 0 1.4068
 0 0 1.38561
 0 0 1.36175
 0 0 1.33528
 0 0 1.30622
 0 0 1.27462
 0 0 1.24052
 0 0 1.20394
 0 0 1.16493
 0 0 1.1235
 0 0 1.0797
 0 0 1.03355
 0 0 0.985074
 0 0 1.474
 0 0 1.47609
 0 0 1.47504
 0 0 1.47093
 0 0 1.46383
 0 0 1.45381
 0 0 1.44092
 0 0 1.42521
 0 0 1.40674
 0 0 1.38557
 0 0 1.36172
 0 0 1.33526
 0 0 1.30621
 0 0 1.27463
 0 0 1.24053
 0 0 1.20396
 0 0 1.16496
 0 0 1.12354
 0 0 1.07974
 0 0 1.03359
 0 0 0.985115
 0 0 1.47381
 0 0 1.4759
 0 0 1.47486
 0 0 1.47077
 0 0 1.46369
 0 0 1.45368
 0 0 1.44081
 0 0 1.42512
 0 0 1.40668
 0 0 1.38552
 0 0 1.3617
 0 0 1.33525
 0 0 1.30622
 0 0 1.27465
 0 0 1.24057
 0 0 1.20402
 0 0 1.16503
 0 0 1.12362
 0 0 1.07983
 0 0 1.03369
 0 0 0.985211
 0 0 1.47343
 0 0 1.47554
 0 0 1.47454
 0 0 1.4705
 0 0 1.46346
 0 0 1.4535
 0 0 1.44066
 0 0 1.42501
 0 0 1.40659
 0 0 1.38547
 0 0 1.36167
 0 0 1.33525
 0 0 1.30625
 0 0 1.2747
 0 0 1.24065
 0 0 1.20413
 0 0 1.16517
 0 0 1.12379
 0 0 1.08004
 0 0 1.03392
 0 0 0.985448
 0 0 1.47216
 0 0 1.47469
 0 0 1.47397
 0 0 1.4701
 0 0 1.46319
 0 0 1.4533
 0 0 1.44053
 0 0 1.42491
 0 0 1.40653
 0 0 1.38542
 0 0 1.36165
 0 0 1.33525
 0 0 1.30627
 0 0 1.27475
 0 0 1.24073
 0 0 1.20426
 0 0 1.16536
 0 0 1.12408
 0 0 1.08045
 0 0 1.03453
 0 0 0.986354

