# vtk DataFile Version 4.1
Exported OTI solution
ASCII
DATASET UNSTRUCTURED_GRID
POINTS 27 double
1.0 0.05 0.0
1.0 -0.05 0.0
1.5 0.05 0.0
1.5 -0.05 0.0
1.0 1.32741040382e-13 0.0
1.0625 -0.05 0.0
1.125 -0.05 0.0
1.1875 -0.05 0.0
1.25 -0.05 0.0
1.3125 -0.05 0.0
1.375 -0.05 0.0
1.4375 -0.05 0.0
1.5 -1.32741040382e-13 0.0
1.4375 0.05 0.0
1.375 0.05 0.0
1.3125 0.05 0.0
1.25 0.05 0.0
1.1875 0.05 0.0
1.125 0.05 0.0
1.0625 0.05 0.0
1.0625 9.95614181376e-14 0.0
1.125 6.63713875526e-14 0.0
1.1875 3.31904642659e-14 0.0
1.25 3.46944695205e-18 0.0
1.3125 -3.31817906485e-14 0.0
1.375 -6.63705201909e-14 0.0
1.4375 -9.95523108394e-14 0.0
CELLS 16 80 
4 0 4 20 19 
4 19 20 21 18 
4 18 21 22 17 
4 17 22 23 16 
4 16 23 24 15 
4 15 24 25 14 
4 14 25 26 13 
4 13 26 12 2 
4 4 1 5 20 
4 20 5 6 21 
4 21 6 7 22 
4 22 7 8 23 
4 23 8 9 24 
4 24 9 10 25 
4 25 10 11 26 
4 26 11 3 12 
CELL_TYPES 16 
9
9
9
9
9
9
9
9
9
9
9
9
9
9
9
9
POINT_DATA 27
SCALARS Theta-$Re$ double
LOOKUP_TABLE default
1.47412498439 
1.47412498439 
0.985058334374 
0.985058334374 
1.47412498439 
1.47349054136 
1.45391399408 
1.41638816213 
1.36175297806 
1.29072535192 
1.20392208203 
1.10187766879 
0.985058334374 
1.10187766879 
1.20392208203 
1.29072535192 
1.36175297806 
1.41638816213 
1.45391399408 
1.47349054136 
1.47349054136 
1.45391399408 
1.41638816213 
1.36175297806 
1.29072535192 
1.20392208203 
1.10187766879 
SCALARS Theta-$\epsilon_1$ double
LOOKUP_TABLE default
5.11343949065 
5.11343949065 
3.33573181104 
3.33573181104 
5.11343949065 
5.14443952185 
5.17366712918 
5.2013140743 
5.22754258901 
5.25249114345 
5.27627887133 
5.29900901066 
3.33573181104 
5.29900901066 
5.27627887133 
5.25249114345 
5.22754258901 
5.2013140743 
5.17366712918 
5.14443952185 
5.14443952185 
5.17366712918 
5.2013140743 
5.22754258901 
5.25249114345 
5.27627887133 
5.29900901066 
SCALARS Theta-$\epsilon_1^2$ double
LOOKUP_TABLE default
0.877071797076 
0.877071797076 
-0.615625993824 
-0.615625993823 
0.877071797076 
0.882389011278 
0.887402214255 
0.892144297522 
0.896643087538 
0.9009223351 
0.905002474365 
0.908901213009 
-0.615625993822 
0.908901213009 
0.905002474365 
0.9009223351 
0.896643087538 
0.892144297522 
0.887402214255 
0.882389011278 
0.882389011278 
0.887402214255 
0.892144297522 
0.896643087538 
0.9009223351 
0.905002474365 
0.908901213009 
SCALARS Theta-$\epsilon_1^3$ double
LOOKUP_TABLE default
0.626423244176 
0.626423244176 
0.368655778865 
0.368655778857 
0.626423244176 
0.630220911119 
0.633801446809 
0.637188343064 
0.640401474128 
0.643457803324 
0.646371925158 
0.64915648683 
0.368655778819 
0.649156486835 
0.646371925159 
0.643457803324 
0.640401474128 
0.637188343064 
0.633801446809 
0.630220911119 
0.630220911119 
0.633801446809 
0.637188343064 
0.640401474128 
0.643457803324 
0.646371925159 
0.649156486834 
SCALARS Theta-$\epsilon_2$ double
LOOKUP_TABLE default
6.91750358417e-05 
6.91750360402e-05 
-4.61166871865e-06 
-4.61166861156e-06 
6.91750358582e-05 
-0.164556247474 
-0.459232608364 
-0.73933776045 
-1.00705738414 
-1.26416084023 
-1.51209578783 
-1.75205811943 
-4.61166861228e-06 
-1.75205811943 
-1.51209578783 
-1.26416084023 
-1.00705738414 
-0.73933776045 
-0.459232608364 
-0.164556247474 
-0.164556247474 
-0.459232608364 
-0.73933776045 
-1.00705738414 
-1.26416084023 
-1.51209578783 
-1.75205811943 
SCALARS Theta-$\epsilon_1\epsilon_2$ double
LOOKUP_TABLE default
-0.0556734562236 
-0.0556734562235 
0.003714638216 
0.00371463821321 
-0.0556734562235 
0.425246375052 
0.398191223836 
0.373967694685 
0.352151859797 
0.332400461675 
0.314432589627 
0.298016134433 
0.00371463821185 
0.298016134433 
0.314432589627 
0.332400461675 
0.352151859797 
0.373967694685 
0.398191223836 
0.425246375052 
0.425246375052 
0.398191223836 
0.373967694685 
0.352151859797 
0.332400461675 
0.314432589627 
0.298016134433 
SCALARS Theta-$\epsilon_1^2\epsilon_2$ double
LOOKUP_TABLE default
-1.35413357563 
-1.35413357563 
0.0877991453152 
0.0877991452953 
-1.35413357563 
-1.27979631869 
-1.29212232593 
-1.30354700844 
-1.31418573856 
-1.32413380367 
-1.3334707127 
-1.34226342423 
0.0877991453695 
-1.34226342426 
-1.33347071271 
-1.32413380367 
-1.31418573856 
-1.30354700844 
-1.29212232593 
-1.27979631869 
-1.27979631869 
-1.29212232593 
-1.30354700844 
-1.31418573856 
-1.32413380367 
-1.33347071271 
-1.34226342424 
SCALARS Theta-$\epsilon_2^2$ double
LOOKUP_TABLE default
0.0848552746582 
0.0848552746564 
-0.00565701829811 
-0.00565701829705 
0.0848552746591 
-2.40032642605 
-2.27317683777 
-2.16552182768 
-2.07356418427 
-1.99438845207 
-1.92572614288 
-1.86579077853 
-0.00565701829658 
-1.86579077853 
-1.92572614288 
-1.99438845207 
-2.07356418427 
-2.16552182768 
-2.27317683777 
-2.40032642605 
-2.40032642605 
-2.27317683777 
-2.16552182768 
-2.07356418427 
-1.99438845207 
-1.92572614288 
-1.86579077853 
SCALARS Theta-$\epsilon_1\epsilon_2^2$ double
LOOKUP_TABLE default
1.38808183918 
1.38808183918 
-0.0887674405254 
-0.0887674406955 
1.38808183918 
1.15860883557 
1.19129914443 
1.2197694372 
1.24480125639 
1.26699858476 
1.28683458055 
1.30468450878 
-0.0887674406004 
1.30468450877 
1.28683458056 
1.26699858476 
1.24480125639 
1.2197694372 
1.19129914443 
1.15860883557 
1.15860883557 
1.19129914443 
1.2197694372 
1.24480125639 
1.26699858476 
1.28683458055 
1.30468450879 
SCALARS Theta-$\epsilon_2^3$ double
LOOKUP_TABLE default
0.353758862477 
0.353758862549 
-0.0235839238972 
-0.0235839239248 
0.353758862449 
0.186377448105 
0.0720221690373 
-0.0192626571955 
-0.0929665088623 
-0.153085084344 
-0.202573664542 
-0.243649817816 
-0.023583923877 
-0.24364981778 
-0.202573664539 
-0.153085084343 
-0.0929665088624 
-0.0192626571954 
0.0720221690336 
0.186377448102 
0.186377448095 
0.0720221690351 
-0.0192626571955 
-0.0929665088624 
-0.153085084343 
-0.20257366454 
-0.243649817796 
SCALARS Theta-$\epsilon_3$ double
LOOKUP_TABLE default
0.47545868547 
0.47545868547 
0.384969420969 
0.384969420969 
0.47545868547 
0.476426881688 
0.473544045683 
0.467015515409 
0.457015008255 
0.443690797731 
0.427170451934 
0.407564517851 
0.384969420969 
0.407564517851 
0.427170451934 
0.443690797731 
0.457015008255 
0.467015515409 
0.473544045683 
0.476426881688 
0.476426881688 
0.473544045683 
0.467015515409 
0.457015008255 
0.443690797731 
0.427170451934 
0.407564517851 
SCALARS Theta-$\epsilon_1\epsilon_3$ double
LOOKUP_TABLE default
1.01906244988 
1.01906244988 
0.675416222696 
0.675416222695 
1.01906244988 
1.02524047698 
1.03106527596 
1.0365750632 
1.04180217002 
1.04677419229 
1.05151487227 
1.05604478438 
0.675416222695 
1.05604478438 
1.05151487227 
1.04677419229 
1.04180217002 
1.0365750632 
1.03106527596 
1.02524047698 
1.02524047698 
1.03106527596 
1.0365750632 
1.04180217002 
1.04677419229 
1.05151487227 
1.05604478438 
SCALARS Theta-$\epsilon_1^2\epsilon_3$ double
LOOKUP_TABLE default
0.174340379924 
0.174340379924 
-0.12856684046 
-0.128566840459 
0.174340379924 
0.175397311805 
0.176393813705 
0.17733642365 
0.178230672858 
0.179081282407 
0.179892314106 
0.180667287807 
-0.128566840459 
0.180667287807 
0.179892314106 
0.179081282407 
0.178230672858 
0.17733642365 
0.176393813705 
0.175397311805 
0.175397311805 
0.176393813705 
0.17733642365 
0.178230672858 
0.179081282407 
0.179892314106 
0.180667287807 
SCALARS Theta-$\epsilon_2\epsilon_3$ double
LOOKUP_TABLE default
1.4130937776e-05 
1.41309378214e-05 
-9.42062450674e-07 
-9.42062432856e-07 
1.41309377821e-05 
-0.0159104005058 
-0.0757901605874 
-0.132656259092 
-0.186960745065 
-0.239069563069 
-0.289282122347 
-0.337845761009 
-9.42062435956e-07 
-0.337845761009 
-0.289282122347 
-0.239069563069 
-0.186960745065 
-0.132656259092 
-0.0757901605874 
-0.0159104005058 
-0.0159104005058 
-0.0757901605874 
-0.132656259092 
-0.186960745065 
-0.239069563069 
-0.289282122347 
-0.337845761009 
SCALARS Theta-$\epsilon_1\epsilon_2\epsilon_3$ double
LOOKUP_TABLE default
-0.0112579894321 
-0.0112579894321 
0.000751160676122 
0.00075116067494 
-0.011257989432 
0.0845840160226 
0.079191237613 
0.0743628263012 
0.0700142919288 
0.0660772219599 
0.06249562963 
0.0592232543757 
0.000751160675057 
0.059223254376 
0.0624956296301 
0.0660772219599 
0.0700142919288 
0.0743628263012 
0.079191237613 
0.0845840160226 
0.0845840160226 
0.079191237613 
0.0743628263012 
0.0700142919288 
0.0660772219599 
0.0624956296301 
0.0592232543759 
SCALARS Theta-$\epsilon_2^2\epsilon_3$ double
LOOKUP_TABLE default
0.0172295023921 
0.017229502392 
-0.00114863348734 
-0.00114863348742 
0.0172295023926 
-0.488023614102 
-0.461727982416 
-0.439464179433 
-0.420446864525 
-0.404073063033 
-0.389873606818 
-0.377479017517 
-0.00114863348726 
-0.377479017517 
-0.389873606818 
-0.404073063033 
-0.420446864525 
-0.439464179433 
-0.461727982416 
-0.488023614102 
-0.488023614102 
-0.461727982416 
-0.439464179433 
-0.420446864525 
-0.404073063033 
-0.389873606818 
-0.377479017517 
SCALARS Theta-$\epsilon_3^2$ double
LOOKUP_TABLE default
-0.0 
-0.0 
-0.0 
-0.0 
-0.0 
-0.0 
-0.0 
-0.0 
-0.0 
-0.0 
-0.0 
-0.0 
-0.0 
-0.0 
-0.0 
-0.0 
-0.0 
-0.0 
-0.0 
-0.0 
-0.0 
-0.0 
-0.0 
-0.0 
-0.0 
-0.0 
-0.0 
SCALARS Theta-$\epsilon_1\epsilon_3^2$ double
LOOKUP_TABLE default
-0.0 
-0.0 
-0.0 
-0.0 
-0.0 
-0.0 
-0.0 
-0.0 
-0.0 
-0.0 
-0.0 
-0.0 
-0.0 
-0.0 
-0.0 
-0.0 
-0.0 
-0.0 
-0.0 
-0.0 
-0.0 
-0.0 
-0.0 
-0.0 
-0.0 
-0.0 
-0.0 
SCALARS Theta-$\epsilon_2\epsilon_3^2$ double
LOOKUP_TABLE default
-0.0 
-0.0 
-0.0 
-0.0 
-0.0 
-0.0 
-0.0 
-0.0 
-0.0 
-0.0 
-0.0 
-0.0 
-0.0 
-0.0 
-0.0 
-0.0 
-0.0 
-0.0 
-0.0 
-0.0 
-0.0 
-0.0 
-0.0 
-0.0 
-0.0 
-0.0 
-0.0 
SCALARS Theta-$\epsilon_3^3$ double
LOOKUP_TABLE default
-0.0 
-0.0 
-0.0 
-0.0 
-0.0 
-0.0 
-0.0 
-0.0 
-0.0 
-0.0 
-0.0 
-0.0 
-0.0 
-0.0 
-0.0 
-0.0 
-0.0 
-0.0 
-0.0 
-0.0 
-0.0 
-0.0 
-0.0 
-0.0 
-0.0 
-0.0 
-0.0 
SCALARS ThetaAnalytic-$Re$ double
LOOKUP_TABLE default
1.47412494384 
1.47412494384 
0.985058337078 
0.985058337078 
1.47412494384 
1.4734905126 
1.45391397406 
1.41638814869 
1.36175296963 
1.29072534735 
1.20392208048 
1.10187766961 
0.985058337078 
1.10187766961 
1.20392208048 
1.29072534735 
1.36175296963 
1.41638814869 
1.45391397406 
1.4734905126 
1.4734905126 
1.45391397406 
1.41638814869 
1.36175296963 
1.29072534735 
1.20392208048 
1.10187766961 
SCALARS ThetaAnalytic-$\epsilon_1$ double
LOOKUP_TABLE default
5.11345622282 
5.11345622282 
5.32078903084 
5.32078903084 
5.11345622282 
5.14445635779 
5.17368406248 
5.20133109939 
5.22755970092 
5.25250833778 
5.27629614413 
5.29902635832 
5.32078903084 
5.29902635832 
5.27629614413 
5.25250833778 
5.22755970092 
5.20133109939 
5.17368406248 
5.14445635779 
5.14445635779 
5.17368406248 
5.20133109939 
5.22755970092 
5.25250833778 
5.27629614413 
5.29902635832 
SCALARS ThetaAnalytic-$\epsilon_1^2$ double
LOOKUP_TABLE default
0.84921587767 
0.84921587767 
0.883648618435 
0.883648618435 
0.84921587767 
0.854364216812 
0.85921820007 
0.863809674346 
0.868165582348 
0.872308920556 
0.876259474147 
0.880034388403 
0.883648618435 
0.880034388403 
0.876259474147 
0.872308920556 
0.868165582348 
0.863809674346 
0.85921820007 
0.854364216812 
0.854364216812 
0.85921820007 
0.863809674346 
0.868165582348 
0.872308920556 
0.876259474147 
0.880034388403 
SCALARS ThetaAnalytic-$\epsilon_1^3$ double
LOOKUP_TABLE default
0.184900185136 
0.184900185136 
0.192397242492 
0.192397242492 
0.184900185136 
0.186021135516 
0.187077995646 
0.188077699568 
0.189026113531 
0.18992824457 
0.19078840052 
0.191610314433 
0.192397242492 
0.191610314433 
0.19078840052 
0.18992824457 
0.189026113531 
0.188077699568 
0.187077995646 
0.186021135516 
0.186021135516 
0.187077995646 
0.188077699568 
0.189026113531 
0.18992824457 
0.19078840052 
0.191610314433 
SCALARS ThetaAnalytic-$\epsilon_2$ double
LOOKUP_TABLE default
0.147412494384 
0.147412494384 
-1.98505833708 
-1.98505833708 
0.147412494384 
-0.164567652345 
-0.459244449437 
-0.73935000473 
-1.00707000449 
-1.2641738138 
-1.51210909499 
-1.75207174304 
-1.98505833708 
-1.75207174304 
-1.51210909499 
-1.2641738138 
-1.00707000449 
-0.73935000473 
-0.459244449437 
-0.164567652345 
-0.164567652345 
-0.459244449437 
-0.73935000473 
-1.00707000449 
-1.2641738138 
-1.51210909499 
-1.75207174304 
SCALARS ThetaAnalytic-$\epsilon_1\epsilon_2$ double
LOOKUP_TABLE default
0.511345622282 
0.511345622282 
0.340897081521 
0.340897081521 
0.511345622282 
0.48126646803 
0.454529442028 
0.430606839816 
0.409076497826 
0.389596664596 
0.371887725296 
0.355718693761 
0.340897081521 
0.355718693761 
0.371887725296 
0.389596664596 
0.409076497826 
0.430606839816 
0.454529442028 
0.48126646803 
0.48126646803 
0.454529442028 
0.430606839816 
0.409076497826 
0.389596664596 
0.371887725296 
0.355718693761 
SCALARS ThetaAnalytic-$\epsilon_1^2\epsilon_2$ double
LOOKUP_TABLE default
0.084921587767 
0.084921587767 
0.0566143918447 
0.0566143918447 
0.084921587767 
0.0799262002513 
0.0754858557929 
0.0715129160143 
0.0679372702136 
0.0647021621082 
0.0617611547396 
0.0590758871423 
0.0566143918447 
0.0590758871423 
0.0617611547396 
0.0647021621082 
0.0679372702136 
0.0715129160143 
0.0754858557929 
0.0799262002513 
0.0799262002513 
0.0754858557929 
0.0715129160143 
0.0679372702136 
0.0647021621082 
0.0617611547396 
0.0590758871423 
SCALARS ThetaAnalytic-$\epsilon_2^2$ double
LOOKUP_TABLE default
-2.57370624719 
-2.57370624719 
-1.83831388764 
-1.83831388764 
-2.57370624719 
-2.4225563989 
-2.29589135581 
-2.18869473485 
-2.0971719982 
-2.01840997569 
-1.95014214727 
-1.89058374155 
-1.83831388764 
-1.89058374155 
-1.95014214727 
-2.01840997569 
-2.0971719982 
-2.18869473485 
-2.29589135581 
-2.4225563989 
-2.4225563989 
-2.29589135581 
-2.18869473485 
-2.0971719982 
-2.01840997569 
-1.95014214727 
-1.89058374155 
SCALARS ThetaAnalytic-$\epsilon_1\epsilon_2^2$ double
LOOKUP_TABLE default
-0.255672811141 
-0.255672811141 
-0.113632360507 
-0.113632360507 
-0.255672811141 
-0.226478337896 
-0.202013085346 
-0.181308143081 
-0.16363059913 
-0.148417776989 
-0.135231900108 
-0.123728241308 
-0.113632360507 
-0.123728241308 
-0.135231900108 
-0.148417776989 
-0.16363059913 
-0.181308143081 
-0.202013085346 
-0.226478337896 
-0.226478337896 
-0.202013085346 
-0.181308143081 
-0.16363059913 
-0.148417776989 
-0.135231900108 
-0.123728241308 
SCALARS ThetaAnalytic-$\epsilon_2^3$ double
LOOKUP_TABLE default
0.882470831461 
0.882470831461 
0.261472838951 
0.261472838951 
0.882470831461 
0.735721662053 
0.619787470107 
0.526986517811 
0.451825065708 
0.390303479718 
0.339462859285 
0.297082314923 
0.261472838951 
0.297082314923 
0.339462859285 
0.390303479718 
0.451825065708 
0.526986517811 
0.619787470107 
0.735721662053 
0.735721662053 
0.619787470107 
0.526986517811 
0.451825065708 
0.390303479718 
0.339462859285 
0.297082314923 
SCALARS ThetaAnalytic-$\epsilon_3$ double
LOOKUP_TABLE default
0.475458677083 
0.475458677083 
0.384969421528 
0.384969421528 
0.475458677083 
0.47642687574 
0.473544041543 
0.467015512628 
0.457015006511 
0.443690796787 
0.427170451614 
0.407564518022 
0.384969421528 
0.407564518022 
0.427170451614 
0.443690796787 
0.457015006511 
0.467015512628 
0.473544041543 
0.47642687574 
0.47642687574 
0.473544041543 
0.467015512628 
0.457015006511 
0.443690796787 
0.427170451614 
0.407564518022 
SCALARS ThetaAnalytic-$\epsilon_1\epsilon_3$ double
LOOKUP_TABLE default
1.01906585241 
1.01906585241 
1.06038541702 
1.06038541702 
1.01906585241 
1.0252439006 
1.03106871938 
1.03657852527 
1.04180564975 
1.04677768877 
1.05151838471 
1.05604831204 
1.06038541702 
1.05604831204 
1.05151838471 
1.04677768877 
1.04180564975 
1.03657852527 
1.03106871938 
1.0252439006 
1.0252439006 
1.03106871938 
1.03657852527 
1.04180564975 
1.04677768877 
1.05151838471 
1.05604831204 
SCALARS ThetaAnalytic-$\epsilon_1^2\epsilon_3$ double
LOOKUP_TABLE default
0.16870747459 
0.16870747459 
0.175547974032 
0.175547974032 
0.16870747459 
0.169730257274 
0.17069456244 
0.171606716875 
0.172472073091 
0.17329519963 
0.174080027065 
0.174829961526 
0.175547974032 
0.174829961526 
0.174080027065 
0.17329519963 
0.172472073091 
0.171606716875 
0.17069456244 
0.169730257274 
0.169730257274 
0.17069456244 
0.171606716875 
0.172472073091 
0.17329519963 
0.174080027065 
0.174829961526 
SCALARS ThetaAnalytic-$\epsilon_2\epsilon_3$ double
LOOKUP_TABLE default
0.0475458677083 
0.0475458677083 
-0.384969421528 
-0.384969421528 
0.0475458677083 
-0.0159127127451 
-0.075792562037 
-0.132658742982 
-0.186963305833 
-0.239072196032 
-0.289284823485 
-0.337848526812 
-0.384969421528 
-0.337848526812 
-0.289284823485 
-0.239072196032 
-0.186963305833 
-0.132658742982 
-0.075792562037 
-0.0159127127451 
-0.0159127127451 
-0.075792562037 
-0.132658742982 
-0.186963305833 
-0.239072196032 
-0.289284823485 
-0.337848526812 
SCALARS ThetaAnalytic-$\epsilon_1\epsilon_2\epsilon_3$ double
LOOKUP_TABLE default
0.101906585241 
0.101906585241 
0.0679377234942 
0.0679377234942 
0.101906585241 
0.0959120802271 
0.0905836313256 
0.0858160717822 
0.0815252681931 
0.0776431125648 
0.0741138801755 
0.0708915375592 
0.0679377234942 
0.0708915375592 
0.0741138801755 
0.0776431125648 
0.0815252681931 
0.0858160717822 
0.0905836313256 
0.0959120802271 
0.0959120802271 
0.0905836313256 
0.0858160717822 
0.0815252681931 
0.0776431125648 
0.0741138801755 
0.0708915375592 
SCALARS ThetaAnalytic-$\epsilon_2^2\epsilon_3$ double
LOOKUP_TABLE default
-0.523772933854 
-0.523772933854 
-0.371676859491 
-0.371676859491 
-0.523772933854 
-0.492511664591 
-0.466314416872 
-0.444143687165 
-0.425214677667 
-0.408924877702 
-0.394805518733 
-0.382487468935 
-0.371676859491 
-0.382487468935 
-0.394805518733 
-0.408924877702 
-0.425214677667 
-0.444143687165 
-0.466314416872 
-0.492511664591 
-0.492511664591 
-0.466314416872 
-0.444143687165 
-0.425214677667 
-0.408924877702 
-0.394805518733 
-0.382487468935 
SCALARS ThetaAnalytic-$\epsilon_3^2$ double
LOOKUP_TABLE default
0.0 
0.0 
0.0 
0.0 
0.0 
0.0 
0.0 
0.0 
0.0 
0.0 
0.0 
0.0 
0.0 
0.0 
0.0 
0.0 
0.0 
0.0 
0.0 
0.0 
0.0 
0.0 
0.0 
0.0 
0.0 
0.0 
0.0 
SCALARS ThetaAnalytic-$\epsilon_1\epsilon_3^2$ double
LOOKUP_TABLE default
0.0 
0.0 
0.0 
0.0 
0.0 
0.0 
0.0 
0.0 
0.0 
0.0 
0.0 
0.0 
0.0 
0.0 
0.0 
0.0 
0.0 
0.0 
0.0 
0.0 
0.0 
0.0 
0.0 
0.0 
0.0 
0.0 
0.0 
SCALARS ThetaAnalytic-$\epsilon_2\epsilon_3^2$ double
LOOKUP_TABLE default
0.0 
0.0 
0.0 
0.0 
0.0 
0.0 
0.0 
0.0 
0.0 
0.0 
0.0 
0.0 
0.0 
0.0 
0.0 
0.0 
0.0 
0.0 
0.0 
0.0 
0.0 
0.0 
0.0 
0.0 
0.0 
0.0 
0.0 
SCALARS ThetaAnalytic-$\epsilon_3^3$ double
LOOKUP_TABLE default
0.0 
0.0 
0.0 
0.0 
0.0 
0.0 
0.0 
0.0 
0.0 
0.0 
0.0 
0.0 
0.0 
0.0 
0.0 
0.0 
0.0 
0.0 
0.0 
0.0 
0.0 
0.0 
0.0 
0.0 
0.0 
0.0 
0.0 
VECTORS DomainPert-$Re$ double
1.0 0 0 
1.0 0 0 
1.5 0 0 
1.5 0 0 
1.0 0 0 
1.0625 0 0 
1.125 0 0 
1.1875 0 0 
1.25 0 0 
1.3125 0 0 
1.375 0 0 
1.4375 0 0 
1.5 0 0 
1.4375 0 0 
1.375 0 0 
1.3125 0 0 
1.25 0 0 
1.1875 0 0 
1.125 0 0 
1.0625 0 0 
1.0625 0 0 
1.125 0 0 
1.1875 0 0 
1.25 0 0 
1.3125 0 0 
1.375 0 0 
1.4375 0 0 
VECTORS DomainPert-$\epsilon_1$ double
0.0 0 0 
0.0 0 0 
1.0 0 0 
1.0 0 0 
0.0 0 0 
0.0 0 0 
0.0 0 0 
0.0 0 0 
0.0 0 0 
0.0 0 0 
0.0 0 0 
0.0 0 0 
1.0 0 0 
0.0 0 0 
0.0 0 0 
0.0 0 0 
0.0 0 0 
0.0 0 0 
0.0 0 0 
0.0 0 0 
0.0 0 0 
0.0 0 0 
0.0 0 0 
0.0 0 0 
0.0 0 0 
0.0 0 0 
0.0 0 0 
VECTORS DomainPert-$\epsilon_1^2$ double
0.0 0 0 
0.0 0 0 
0.0 0 0 
0.0 0 0 
0.0 0 0 
0.0 0 0 
0.0 0 0 
0.0 0 0 
0.0 0 0 
0.0 0 0 
0.0 0 0 
0.0 0 0 
0.0 0 0 
0.0 0 0 
0.0 0 0 
0.0 0 0 
0.0 0 0 
0.0 0 0 
0.0 0 0 
0.0 0 0 
0.0 0 0 
0.0 0 0 
0.0 0 0 
0.0 0 0 
0.0 0 0 
0.0 0 0 
0.0 0 0 
VECTORS DomainPert-$\epsilon_1^3$ double
0.0 0 0 
0.0 0 0 
0.0 0 0 
0.0 0 0 
0.0 0 0 
0.0 0 0 
0.0 0 0 
0.0 0 0 
0.0 0 0 
0.0 0 0 
0.0 0 0 
0.0 0 0 
0.0 0 0 
0.0 0 0 
0.0 0 0 
0.0 0 0 
0.0 0 0 
0.0 0 0 
0.0 0 0 
0.0 0 0 
0.0 0 0 
0.0 0 0 
0.0 0 0 
0.0 0 0 
0.0 0 0 
0.0 0 0 
0.0 0 0 
VECTORS DomainPert-$\epsilon_2$ double
0.0 0 0 
0.0 0 0 
0.0 0 0 
0.0 0 0 
0.0 0 0 
1.0 0 0 
1.0 0 0 
1.0 0 0 
1.0 0 0 
1.0 0 0 
1.0 0 0 
1.0 0 0 
0.0 0 0 
1.0 0 0 
1.0 0 0 
1.0 0 0 
1.0 0 0 
1.0 0 0 
1.0 0 0 
1.0 0 0 
1.0 0 0 
1.0 0 0 
1.0 0 0 
1.0 0 0 
1.0 0 0 
1.0 0 0 
1.0 0 0 
VECTORS DomainPert-$\epsilon_1\epsilon_2$ double
0.0 0 0 
0.0 0 0 
0.0 0 0 
0.0 0 0 
0.0 0 0 
0.0 0 0 
0.0 0 0 
0.0 0 0 
0.0 0 0 
0.0 0 0 
0.0 0 0 
0.0 0 0 
0.0 0 0 
0.0 0 0 
0.0 0 0 
0.0 0 0 
0.0 0 0 
0.0 0 0 
0.0 0 0 
0.0 0 0 
0.0 0 0 
0.0 0 0 
0.0 0 0 
0.0 0 0 
0.0 0 0 
0.0 0 0 
0.0 0 0 
VECTORS DomainPert-$\epsilon_1^2\epsilon_2$ double
0.0 0 0 
0.0 0 0 
0.0 0 0 
0.0 0 0 
0.0 0 0 
0.0 0 0 
0.0 0 0 
0.0 0 0 
0.0 0 0 
0.0 0 0 
0.0 0 0 
0.0 0 0 
0.0 0 0 
0.0 0 0 
0.0 0 0 
0.0 0 0 
0.0 0 0 
0.0 0 0 
0.0 0 0 
0.0 0 0 
0.0 0 0 
0.0 0 0 
0.0 0 0 
0.0 0 0 
0.0 0 0 
0.0 0 0 
0.0 0 0 
VECTORS DomainPert-$\epsilon_2^2$ double
0.0 0 0 
0.0 0 0 
0.0 0 0 
0.0 0 0 
0.0 0 0 
0.0 0 0 
0.0 0 0 
0.0 0 0 
0.0 0 0 
0.0 0 0 
0.0 0 0 
0.0 0 0 
0.0 0 0 
0.0 0 0 
0.0 0 0 
0.0 0 0 
0.0 0 0 
0.0 0 0 
0.0 0 0 
0.0 0 0 
0.0 0 0 
0.0 0 0 
0.0 0 0 
0.0 0 0 
0.0 0 0 
0.0 0 0 
0.0 0 0 
VECTORS DomainPert-$\epsilon_1\epsilon_2^2$ double
0.0 0 0 
0.0 0 0 
0.0 0 0 
0.0 0 0 
0.0 0 0 
0.0 0 0 
0.0 0 0 
0.0 0 0 
0.0 0 0 
0.0 0 0 
0.0 0 0 
0.0 0 0 
0.0 0 0 
0.0 0 0 
0.0 0 0 
0.0 0 0 
0.0 0 0 
0.0 0 0 
0.0 0 0 
0.0 0 0 
0.0 0 0 
0.0 0 0 
0.0 0 0 
0.0 0 0 
0.0 0 0 
0.0 0 0 
0.0 0 0 
VECTORS DomainPert-$\epsilon_2^3$ double
0.0 0 0 
0.0 0 0 
0.0 0 0 
0.0 0 0 
0.0 0 0 
0.0 0 0 
0.0 0 0 
0.0 0 0 
0.0 0 0 
0.0 0 0 
0.0 0 0 
0.0 0 0 
0.0 0 0 
0.0 0 0 
0.0 0 0 
0.0 0 0 
0.0 0 0 
0.0 0 0 
0.0 0 0 
0.0 0 0 
0.0 0 0 
0.0 0 0 
0.0 0 0 
0.0 0 0 
0.0 0 0 
0.0 0 0 
0.0 0 0 
