# vtk DataFile Version 4.1
Exported OTI solution
ASCII
DATASET UNSTRUCTURED_GRID
POINTS 11 double
0.0 0.0 0.0
0.1 0.0 0.0
0.2 0.0 0.0
0.3 0.0 0.0
0.4 0.0 0.0
0.5 0.0 0.0
0.6 0.0 0.0
0.7 0.0 0.0
0.8 0.0 0.0
0.9 0.0 0.0
1.0 0.0 0.0
CELLS 10 30 
2 0 1 
2 1 2 
2 2 3 
2 3 4 
2 4 5 
2 5 6 
2 6 7 
2 7 8 
2 8 9 
2 9 10 
CELL_TYPES 10 
3
3
3
3
3
3
3
3
3
3
POINT_DATA 11
SCALARS u_0 double 1
LOOKUP_TABLE default
2.0 
1.9 
1.8 
1.7 
1.6 
1.5 
1.4 
1.3 
1.2 
1.1 
1.0 
SCALARS u_1 double 1
LOOKUP_TABLE default
0.0 
0.0 
0.0 
0.0 
0.0 
0.0 
0.0 
0.0 
0.0 
0.0 
0.0 
