# vtk DataFile Version 4.1
Exported OTI solution
ASCII
DATASET UNSTRUCTURED_GRID
POINTS 1309 double
0.0 1.0 0.0
1.0 0.0 0.0
0.0 2.0 0.0
2.0 0.0 0.0
0.04906767432714167 0.998795456205186 0.0
0.09801714032918094 0.9951847266722342 0.0
0.1467304744549152 0.9891765099648472 0.0
0.1950903220156071 0.9807852804033341 0.0
0.2429801799026379 0.9700312531947007 0.0
0.2902846772537269 0.956940335732432 0.0
0.3368898533913511 0.9415440651833317 0.0
0.3826834323641395 0.9238795325116804 0.0
0.4275550934292733 0.9039892931239204 0.0
0.4713967368248647 0.8819212643489607 0.0
0.514102744192009 0.857728610000999 0.0
0.5555702330183429 0.8314696123033867 0.0
0.5956993044911347 0.8032075314816081 0.0
0.6343932841622835 0.7730104533638548 0.0
0.6715589548456415 0.740951125356207 0.0
0.7071067811851961 0.7071067811878989 0.0
0.7409511253537626 0.6715589548483386 0.0
0.773010453361662 0.6343932841649553 0.0
0.8032075314797044 0.5956993044937016 0.0
0.8314696123017457 0.5555702330207989 0.0
0.8577286099995882 0.5141027441943627 0.0
0.8819212643478131 0.4713967368270114 0.0
0.9039892931230207 0.4275550934311756 0.0
0.923879532510958 0.3826834323658835 0.0
0.941544065182776 0.3368898533929041 0.0
0.9569403357320427 0.2902846772550099 0.0
0.9700312531944384 0.2429801799036853 0.0
0.9807852804031667 0.1950903220164489 0.0
0.9891765099647495 0.1467304744555741 0.0
0.99518472667219 0.09801714032963015 0.0
0.9987954562051763 0.04906767432733807 0.0
1.99939763739242 0.04908245704535811 0.0
1.997590912410372 0.09813534865428335 0.0
1.994580913357429 0.1471291271986824 0.0
1.990369453344468 0.1960342806583619 0.0
1.984959069197522 0.2448213503976037 0.0
1.978353019929694 0.2934609489098305 0.0
1.970555284778048 0.3419237775196465 0.0
1.961570560806668 0.3901806440312141 0.0
1.951404260077311 0.4382024803126102 0.0
1.940062506389401 0.4859603598052759 0.0
1.92755213159126 0.5334255149484215 0.0
1.913880671464864 0.5805693545074537 0.0
1.899056361186609 0.6273634807961613 0.0
1.883088130366663 0.6737797067827023 0.0
1.865985597670173 0.7197900730681738 0.0
1.847759065023361 0.765366864728279 0.0
1.828419511407929 0.8104826280080218 0.0
1.807978586247841 0.8551101868585466 0.0
1.786448602392116 0.899222659307057 0.0
1.763842528697921 0.9427934736497293 0.0
1.740173982218746 0.9857963844572317 0.0
1.715457220001998 1.028205488384018 0.0
1.689707130501015 1.069995239771666 0.0
1.662939224606773 1.111140466036686 0.0
1.635169626304976 1.151616382833123 0.0
1.606415062963216 1.191398608982269 0.0
1.576692855255294 1.230463181158587 0.0
1.54602090672771 1.268786568324567 0.0
1.514417693015293 1.30634568590486 0.0
1.481902250712414 1.343117909691283 0.0
1.448494165905593 1.379081089471341 0.0
1.414213562375798 1.414213562370392 0.0
1.379081089476811 1.448494165900385 0.0
1.343117909696677 1.481902250707525 0.0
1.306345685910233 1.514417693010658 0.0
1.268786568329911 1.546020906723324 0.0
1.230463181163844 1.576692855251191 0.0
1.191398608987403 1.606415062959409 0.0
1.15161638283813 1.635169626301449 0.0
1.111140466041598 1.662939224603491 0.0
1.069995239776557 1.689707130497918 0.0
1.028205488388725 1.715457219999176 0.0
0.985796384461739 1.740173982216193 0.0
0.9427934736540228 1.763842528695626 0.0
0.8992226593110764 1.786448602390093 0.0
0.8551101868623512 1.807978586246041 0.0
0.8104826280116739 1.82841951140631 0.0
0.765366864731767 1.847759065021916 0.0
0.7197900730714748 1.8659855976689 0.0
0.6737797067858082 1.883088130365552 0.0
0.6273634807990401 1.899056361185658 0.0
0.5805693545100198 1.913880671464085 0.0
0.5334255149507453 1.927552131590617 0.0
0.4859603598073706 1.940062506388877 0.0
0.4382024803144713 1.951404260076893 0.0
0.3901806440328978 1.961570560806333 0.0
0.3419237775211488 1.970555284777788 0.0
0.2934609489111483 1.978353019929499 0.0
0.2448213503987556 1.98495906919738 0.0
0.1960342806592603 1.99036945334438 0.0
0.1471291271992826 1.994580913357384 0.0
0.09813534865467614 1.997590912410353 0.0
0.04908245704555416 1.999397637392415 0.0
0.0 1.95 0.0
0.0 1.9 0.0
0.0 1.85 0.0
0.0 1.8 0.0
0.0 1.75 0.0
0.0 1.7 0.0
0.0 1.65 0.0
0.0 1.6 0.0
0.0 1.55 0.0
0.0 1.5 0.0
0.0 1.45 0.0
0.0 1.4 0.0
0.0 1.35 0.0
0.0 1.3 0.0
0.0 1.25 0.0
0.0 1.2 0.0
0.0 1.15 0.0
0.0 1.1 0.0
0.0 1.05 0.0
1.05 0.0 0.0
1.1 0.0 0.0
1.15 0.0 0.0
1.2 0.0 0.0
1.25 0.0 0.0
1.3 0.0 0.0
1.35 0.0 0.0
1.4 0.0 0.0
1.45 0.0 0.0
1.5 0.0 0.0
1.55 0.0 0.0
1.6 0.0 0.0
1.65 0.0 0.0
1.7 0.0 0.0
1.75 0.0 0.0
1.8 0.0 0.0
1.85 0.0 0.0
1.9 0.0 0.0
1.95 0.0 0.0
0.6680489608230041 1.351743517368476 0.0
1.067076375404081 1.039250670383457 0.0
1.403676414295119 0.5426788332113407 0.0
0.3871831453401689 1.580687759003671 0.0
1.391337908909978 0.8823590061860129 0.0
1.11079067025403 0.7182576306922868 0.0
1.001909926769793 1.355368144218495 0.0
1.637782564170629 0.3048773870170914 0.0
0.3756317814175835 1.283433832372003 0.0
0.7856843562867036 1.059540738550333 0.0
1.248449642332734 0.282730287785826 0.0
0.6564810935478502 1.601550682087219 0.0
1.317634843719036 1.141771213070808 0.0
1.591448780431005 0.701184973125385 0.0
0.897387782400489 0.8394007817734228 0.0
0.5523710259432105 1.105633341439272 0.0
0.8673154569484544 1.551345755956029 0.0
0.2404891582298933 1.756121404590008 0.0
1.125390869216244 0.4915432076541573 0.0
0.2181610419443012 1.416393497501687 0.0
1.703466136980587 0.526079050467385 0.0
1.223929616068749 1.316904853081182 0.0
1.467016969020678 0.2141145862973948 0.0
0.4989041926653807 1.401676659036231 0.0
0.5017900196259928 1.733433049802373 0.0
1.792127813654113 0.2192728050841234 0.0
0.2065355615260342 1.188172657845017 0.0
1.208469454460433 0.8819901647222284 0.0
1.319000960488071 0.7180180868695493 0.0
1.496333766636343 1.044102083673794 0.0
1.596529997955513 0.9100452282202568 0.0
1.490889216593916 0.3948763938717731 0.0
0.1799215096810313 1.590732660321218 0.0
0.964036393758928 0.6953494665787786 0.0
1.04906665545812 1.507411946452649 0.0
0.8473243522073044 1.283075148005685 0.0
1.777146644212061 0.3988334762017697 0.0
0.3787435640212923 1.091051014507819 0.0
1.08484925775832 1.204316527246655 0.0
1.619034642937732 0.1680729471115758 0.0
1.141651882066731 0.1568398657812127 0.0
0.6788002258454753 1.184283996652124 0.0
0.9397436179309531 1.010105743382634 0.0
0.5353497699728503 1.258782651669496 0.0
0.6283636149780821 0.9588335303750493 0.0
1.549647071471033 0.5648062609760433 0.0
0.7841259543303335 1.662319517680074 0.0
1.281045677415267 0.4352511935871866 0.0
1.119521122734106 0.3164401987301861 0.0
0.7274090357639212 1.482586487989856 0.0
1.312230496826172 0.1464882777338645 0.0
0.3625750087387737 1.813925284649216 0.0
1.246690430671634 0.5818041823867519 0.0
1.050233175571948 0.8883893730221394 0.0
1.720597066908204 0.6902234419167522 0.0
1.353782395348626 1.270844387655972 0.0
1.236785493156081 1.035259580364468 0.0
1.447179751897319 0.6790498943731684 0.0
1.159657459374367 1.442867812862857 0.0
0.9998938182774277 0.5338159443756912 0.0
0.6421223534693866 1.725804767083748 0.0
0.5109391067943785 1.559731798506047 0.0
0.1333701562118838 1.305784767398943 0.0
0.3709223376225299 1.392726859893284 0.0
0.1515397086467821 1.861931139337768 0.0
1.441900630085323 1.169282977989828 0.0
1.67881069403652 0.806192801450259 0.0
1.356931097535865 1.00594229682085 0.0
1.483641727195232 0.8080914555071337 0.0
0.8875127869619566 1.409206621735588 0.0
1.616057435013094 0.4480361864921441 0.0
1.371936111034837 0.3207670007173692 0.0
0.8434088405789907 0.7444820584843251 0.0
0.8230534123192434 1.154954623920752 0.0
0.6118319450398224 1.472791559183343 0.0
0.3444673373489998 1.699702771896683 0.0
1.223167797901072 1.175335181536118 0.0
0.9414295265975815 1.602545896540257 0.0
0.1160988442814405 1.724296117774835 0.0
0.4680938496438233 1.01276010027825 0.0
0.2520214057179732 1.302662374126704 0.0
1.00560134255217 0.7670732790693429 0.0
0.2531341257607495 1.073959919030799 0.0
1.87539391770339 0.1133466957795038 0.0
1.871781687783384 0.2906485678306354 0.0
0.1107147433027713 1.481301929420342 0.0
0.2546897977679392 1.877254536575267 0.0
0.2764153517107935 1.546744174620962 0.0
1.115834181071396 0.6036837467449082 0.0
1.032691633459759 0.4139746182503641 0.0
1.834422761427948 0.5108764917337023 0.0
1.581387672819452 1.011608958245824 0.0
1.720542645294433 0.1194559261768829 0.0
1.207219317881616 0.7605348231099031 0.0
1.507384124874857 0.1024490381183264 0.0
0.4583983447969776 1.175092081118324 0.0
0.670977327473497 1.074054716582646 0.0
1.11175729602684 1.354780521764988 0.0
1.536968701865392 0.2881942308311298 0.0
0.09572363822666882 1.100993543195267 0.0
1.304028546141197 1.38066766035393 0.0
1.310298624188243 0.8402363172716292 0.0
0.7690417944707741 1.388677688029371 0.0
1.734135535158265 0.3081277169138688 0.0
0.8394938389478611 0.9481291127587144 0.0
1.370146689118543 0.4368439407653836 0.0
1.489170975635559 0.9484203704031519 0.0
0.4664590642473752 1.823570278684652 0.0
1.148712553930608 1.096286800378445 0.0
1.636810376252803 0.6231129565114569 0.0
0.9870816882844912 1.25015530824544 0.0
0.2954669971965464 1.185980380770338 0.0
1.382267456031617 0.7883954173973697 0.0
0.8871029007690511 1.677345313239321 0.0
0.5428051085441522 1.642860119868119 0.0
0.4500162563822508 1.308808407878169 0.0
1.123963482217933 0.8147156676020675 0.0
1.019221524518832 1.13513596515105 0.0
1.073006998679658 0.2294097375036156 0.0
0.4243759308937037 1.475722777953095 0.0
0.5796519421132472 1.359411063973531 0.0
1.417732769799462 0.1068520321983325 0.0
1.229844218230712 0.08983317434839179 0.0
1.500541743034755 0.4909032252304334 0.0
1.810720685285573 0.6006111585407057 0.0
0.7740281503971554 1.557717415381929 0.0
1.292755366674741 0.9310317915921728 0.0
1.337325475736145 0.6093434249991707 0.0
0.4580949524099849 1.626303772576313 0.0
0.7325368959042615 1.27861759390779 0.0
0.09461996937439482 1.226123048010771 0.0
0.7381277983845509 1.75915530748841 0.0
0.2696975051232952 1.639451713031049 0.0
0.5726592531332819 1.812226263809306 0.0
0.6633471336627088 0.8812903720285931 0.0
[...]
POINT_DATA 1309
VECTORS uh-$Re$ double
-6.565774184811329e-30 -0.00011610112869777748 0 
-0.00011608171219984858 -6.588399487932088e-30 0 
-4.169149729066724e-30 -0.00011151787026731491 0 
-0.00011152273477680992 -4.171301245576408e-30 0 
-5.675492436181105e-06 -0.00011594856981377976 0 
-1.13678736140029e-05 -0.00011552633373027054 0 
-1.7000596571734907e-05 -0.00011480557227496375 0 
-2.2625317062762263e-05 -0.00011379386087406133 0 
-2.82116552225963e-05 -0.00011260588176460771 0 
-3.3704040566092404e-05 -0.00011108001613832633 0 
-3.9088175849915564e-05 -0.00010924930726797469 0 
-4.4424966140143264e-05 -0.00010721979993718282 0 
-4.963387772299237e-05 -0.00010491946809388179 0 
-5.4729859927396486e-05 -0.00010236101680847695 0 
-5.9700707945136434e-05 -9.956399228905378e-05 0 
-6.450683284281906e-05 -9.653164230186111e-05 0 
-6.913908966084352e-05 -9.323698432823383e-05 0 
-7.361897964625141e-05 -8.971598269516456e-05 0 
-7.79438721830875e-05 -8.598985721532947e-05 0 
-8.208607473986087e-05 -8.206581947481289e-05 0 
-8.601471823915635e-05 -7.792200844850825e-05 0 
-8.972665628684014e-05 -7.364942977904997e-05 0 
-9.323170730103964e-05 -6.913753751304429e-05 0 
-9.652056249612388e-05 -6.44933348540558e-05 0 
-9.957059173790094e-05 -5.967965734899839e-05 0 
-0.00010237786312613652 -5.472777214226402e-05 0 
-0.00010491972009679215 -4.963721880086075e-05 0 
-0.00010722019562765076 -4.441585710512148e-05 0 
-0.00010925893323152819 -3.909520154530008e-05 0 
-0.00011108608145384608 -3.366483284494066e-05 0 
-0.0001125919065345272 -2.8184892547222152e-05 0 
-0.00011385962347549089 -2.2640333078849898e-05 0 
-0.00011482254079388897 -1.703386763736448e-05 0 
-0.00011552203243150862 -1.1388244874317099e-05 0 
-0.00011592482519543273 -5.69405556796332e-06 0 
-0.0001114884732557983 -2.7444963924298016e-06 0 
-0.00011138539656121693 -5.475799158737892e-06 0 
-0.00011121850810077167 -8.204276804149798e-06 0 
-0.00011097721688190918 -1.0927331766648705e-05 0 
-0.00011068465194169543 -1.3649767234220394e-05 0 
-0.0001103159321514771 -1.6361811770905353e-05 0 
-0.00010988333060443271 -1.9066360411238817e-05 0 
-0.00010938143781384467 -2.175804302882853e-05 0 
-0.00010881276803497171 -2.4434608111473727e-05 0 
-0.00010818031399070068 -2.7096175067468497e-05 0 
-0.00010748331652299137 -2.97425159324142e-05 0 
-0.00010672143702383545 -3.2370983888669406e-05 0 
-0.00010589596213587022 -3.4979977875350124e-05 0 
-0.00010500759056253677 -3.7568830398041755e-05 0 
-0.00010405368982426169 -4.013609615328031e-05 0 
-0.00010303536432794336 -4.267703048567028e-05 0 
-0.00010195665267180347 -4.519221215721714e-05 0 
-0.00010081769133768424 -4.768035794824456e-05 0 
-9.961777723332287e-05 -5.014129645653695e-05 0 
-9.83557580739077e-05 -5.257099657985956e-05 0 
-9.703676749921147e-05 -5.4969431271123565e-05 0 
-9.565762794554851e-05 -5.7333418671343594e-05 0 
-9.422362851953165e-05 -5.9665747504737666e-05 0 
-9.273215414361128e-05 -6.195971251358881e-05 0 
-9.118549620294717e-05 -6.421981984013915e-05 0 
-8.957398241283544e-05 -6.643855254895523e-05 0 
-8.79180677852261e-05 -6.861453705660346e-05 0 
-8.62062082404187e-05 -7.075168644091225e-05 0 
-8.444276783626671e-05 -7.284401407147429e-05 0 
-8.262978833788073e-05 -7.48930270038023e-05 0 
-8.07666557969258e-05 -7.689700601395459e-05 0 
-7.885574012170641e-05 -7.885397960573582e-05 0 
-7.689981644993943e-05 -8.076650056795286e-05 0 
-7.489342945357156e-05 -8.262810715479239e-05 0 
-7.284650177688914e-05 -8.444327944173266e-05 0 
-7.07492878690363e-05 -8.620685907794433e-05 0 
-6.86139166755127e-05 -8.791593166542969e-05 0 
-6.643572373429581e-05 -8.957331371962771e-05 0 
-6.421616482123958e-05 -9.117844345678079e-05 0 
-6.19527164192463e-05 -9.272875237103826e-05 0 
-5.9661153159554934e-05 -9.421813242268325e-05 0 
-5.733422277412297e-05 -9.565419432494644e-05 0 
-5.496554052158842e-05 -9.702958303940489e-05 0 
-5.257105658677428e-05 -9.83562313714333e-05 0 
-5.0136139907677236e-05 -9.961162365795374e-05 0 
-4.768118607038925e-05 -0.00010081082416820057 0 
-4.5190338250762116e-05 -0.00010194861793388111 0 
-4.2678847776246916e-05 -0.0001030281977975892 0 
-4.013795631524685e-05 -0.00010404741191164295 0 
-3.7573342905862784e-05 -0.00010500232587496951 0 
-3.49822874574121e-05 -0.00010588601323419097 0 
-3.236744299868469e-05 -0.00010671911543658793 0 
-2.974101918860875e-05 -0.00010747571849521544 0 
-2.7097802081322626e-05 -0.00010817540032005696 0 
-2.443370262946241e-05 -0.00010881028512131012 0 
-2.1757189648206968e-05 -0.00010937557417008427 0 
-1.9064278420990333e-05 -0.00010987851124510011 0 
-1.6363105062250402e-05 -0.00011031235772983894 0 
-1.3651006442583641e-05 -0.00011067314382077658 0 
-1.0931110731111381e-05 -0.00011098427313033053 0 
-8.202004265817416e-06 -0.00011121210298308014 0 
-5.4750653788811174e-06 -0.00011137943635235738 0 
-2.7427755252995154e-06 -0.0001114842535320214 0 
-4.1932824191003105e-30 -0.0001107646356637219 0 
-4.2363511292783356e-30 -0.00011006272308825043 0 
-4.286868809837767e-30 -0.000109419929197864 0 
-4.342659962236124e-30 -0.00010884508906852666 0 
-4.401643439518187e-30 -0.00010834436380433796 0 
-4.4625970213088126e-30 -0.00010789957667772153 0 
-4.536643885048673e-30 -0.00010755617463632558 0 
-4.6164768944956686e-30 -0.0001072955909917483 0 
-4.699430257131345e-30 -0.00010713021817314514 0 
-4.7925450870641054e-30 -0.0001070895631449801 0 
-4.891887960934118e-30 -0.00010714653259458781 0 
-5.009161900300012e-30 -0.00010734105327301325 0 
-5.112521040381168e-30 -0.00010767535149298198 0 
-5.289515367746166e-30 -0.0001081882250910858 0 
-5.4488839675096245e-30 -0.00010888979252725103 0 
-5.618698131982852e-30 -0.0001097923699800779 0 
-5.8221404607013556e-30 -0.00011092022194166885 0 
-6.038470231778742e-30 -0.00011231901894336442 0 
-6.340050073771777e-30 -0.00011402042063458456 0 
-0.00011397302821343299 -6.348865184901899e-30 0 
-0.00011232971018692592 -6.0237045445279e-30 0 
-0.00011092570505454536 -5.815834645493926e-30 0 
-0.0001097942123397006 -5.6199540558020394e-30 0 
-0.00010890035475778305 -5.438900026170245e-30 0 
-0.0001082100865176922 -5.278309983533864e-30 0 
-0.00010769888171815382 -5.13621854205634e-30 0 
-0.00010735054796520894 -5.006285648911829e-30 0 
-0.00010715295901462212 -4.899949855938204e-30 0 
-0.00010708529084921585 -4.786117778164604e-30 0 
-0.0001071360265446403 -4.695881775731816e-30 0 
-0.0001073000460918149 -4.613088764196696e-30 0 
-0.0001075641647052537 -4.53461772876698e-30 0 
-0.00010792449987698784 -4.468960620208972e-30 0 
-0.00010834022600513993 -4.407934592775345e-30 0 
-0.00010885135312646656 -4.333260263212624e-30 0 
-0.00010942930298636593 -4.290592730135764e-30 0 
-0.00011007019338759249 -4.234856475437098e-30 0 
-0.00011076998360076274 -4.1941064143402385e-30 0 
-4.744846517447139e-05 -9.600430086886044e-05 0 
-7.671419389050283e-05 -7.472035792240726e-05 0 
-9.989023623479141e-05 -3.860839019641136e-05 0 
-2.5559328345308987e-05 -0.00010434382686371986 0 
-9.082770795338884e-05 -5.7599124203887676e-05 0 
-9.06424564967907e-05 -5.861328322304176e-05 0 
-6.408201687637142e-05 -8.668465344412009e-05 0 
-0.00010584767803371509 -1.9701618401028173e-05 0 
-3.027870961718367e-05 -0.00010346083802617625 0 
-6.431591327283072e-05 -8.67361042340924e-05 0 
-0.00010577715380725917 -2.3961545154787235e-05 0 
-4.102627188051043e-05 -0.00010008626483434757 0 
-8.183611607534315e-05 -7.091444573031628e-05 0 
-9.906219375419007e-05 -4.364567778026332e-05 0 
-7.97816787444837e-05 -7.462293136800372e-05 0 
-4.878010131147861e-05 -9.760896520309859e-05 0 
-5.300368181662851e-05 -9.480168303121609e-05 0 
-1.4730536250693115e-05 -0.00010755430997458027 0 
-0.00010011500321437108 -4.371875541531113e-05 0 
-1.6321765812560158e-05 -0.00010595129377655652 0 
-0.0001038346528530299 -3.206512219225428e-05 0 
-7.408687315867806e-05 -7.971700934072753e-05 0 
-0.00010597035443007474 -1.5461526611483488e-05 0 
-3.590967417272887e-05 -0.00010089210537112956 0 
-3.0282897056114015e-05 -0.00010459867539453052 0 
-0.00010810641220625407 -1.322663732126468e-05 0 
-1.8770590065822123e-05 -0.00010805314845125768 0 
-8.649913049768877e-05 -6.312916569610449e-05 0 
-9.405226121102537e-05 -5.119929861734719e-05 0 
-8.949525232105412e-05 -6.244713057635516e-05 0 
-9.493875092092691e-05 -5.411730355854081e-05 0 
-0.00010355748023817704 -2.743286487407064e-05 0 
-1.2056017504223085e-05 -0.0001066228405188225 0 
-8.923319588884223e-05 -6.43561981329279e-05 0 
-6.241638870929264e-05 -8.968190861986497e-05 0 
-5.902945395803978e-05 -8.938300678135234e-05 0 
-0.000106450712584455 -2.3888986647913997e-05 0 
-3.6327473454042376e-05 -0.00010465724788679792 0 
-7.188408078154055e-05 -7.980204662760384e-05 0 
-0.00010685721743547346 -1.109122834847863e-05 0 
-0.00010980735902928615 -1.5111506225573751e-05 0 
-5.349298199839044e-05 -9.332227067632494e-05 0 
-7.319855528693296e-05 -7.867681116310022e-05 0 
-4.207927378598651e-05 -9.896386667966183e-05 0 
-6.084947077969056e-05 -9.283342532338145e-05 0 
-0.00010105537698834043 -3.683119237709178e-05 0 
-4.6624714883314796e-05 -9.883865905084239e-05 0 
-0.00010194280396307303 -3.4633899733294425e-05 0 
-0.00010642609707204051 -3.007983737000599e-05 0 
-4.738394259922426e-05 -9.657367264342045e-05 0 
-0.00010731181752004313 -1.1987396895701098e-05 0 
-2.144626190468942e-05 -0.00010729846662536469 0 
-9.741839550058742e-05 -4.5449217257387256e-05 0 
-8.206633343451909e-05 -6.942627006746615e-05 0 
-0.00010160853318754622 -4.07567170933811e-05 0 
-7.984410425297813e-05 -7.495351532987712e-05 0 
-8.233024713104563e-05 -6.891326705763078e-05 0 
-9.713947494454842e-05 -4.557870428162342e-05 0 
-6.856082142332626e-05 -8.530214226831921e-05 0 
-9.820841662716679e-05 -5.244793291193015e-05 0 
-3.8122820534530667e-05 -0.00010246189832602016 0 
-3.3465922329814675e-05 -0.00010217003077938827 0 
-1.0990694718353845e-05 -0.00010748662512380631 0 
-2.758294020003335e-05 -0.00010355992716026317 0 
-8.896465272305683e-06 -0.00010928532760360323 0 
-8.505287739974213e-05 -6.897538096464233e-05 0 
-9.87827278405638e-05 -4.74331585283095e-05 0 
-8.66247005407529e-05 -6.421862017728652e-05 0 
-9.470027636934435e-05 -5.1578574907549796e-05 0 
-5.737499265214553e-05 -9.109830970129773e-05 0 
-0.00010382641610475347 -2.8780136737878567e-05 0 
-0.00010448332279366327 -2.4423473200556785e-05 0 
-8.365637307993046e-05 -7.385479403870253e-05 0 
-6.224484581942204e-05 -8.734503556864418e-05 0 
-4.115623345370228e-05 -9.906961500244248e-05 0 
-2.1492866252886622e-05 -0.00010604491760304433 0 
-7.779235321300172e-05 -7.474897227708726e-05 0 
-5.548138033523706e-05 -9.443999230449264e-05 0 
-7.265410829777933e-06 -0.00010789462577206335 0 
-4.6938007693044244e-05 -0.00010152172025589265 0 
-2.0492151822040708e-05 -0.00010593992214598781 0 
-8.639742586701413e-05 -6.589744696908095e-05 0 
-2.5734692198332444e-05 -0.00010921414102743498 0 
-0.00010959238363415822 -6.625943541082939e-06 0 
-0.00010869450498836514 -1.6878590795727698e-05 0 
-7.978258106086522e-06 -0.00010678896132735018 0 
-1.4786580702316547e-05 -0.00010898957970834647 0 
-1.8855130907359783e-05 -0.00010552213860620327 0 
-9.553085375914404e-05 -5.167138784118454e-05 0 
-0.00010388910336190162 -4.1656544759119286e-05 0 
-0.00010609127631669568 -2.9544190684983076e-05 0 
-9.247228131903211e-05 -5.915243488724221e-05 0 
-0.00010785706976451797 -7.4855147292627065e-06 0 
-9.072474101961883e-05 -5.71505642586367e-05 0 
-0.00010683873518587829 -7.261051650284457e-06 0 
-3.9518617073481055e-05 -0.00010127551065458254 0 
-5.755525674995269e-05 -9.21419360276774e-05 0 
-6.874761336750056e-05 -8.377485370203642e-05 0 
-0.00010534087738536467 -1.9746797547751152e-05 0 
-9.710893873324324e-06 -0.0001117477907160217 0 
-7.556952428048203e-05 -8.001010834385472e-05 0 
-9.021069895935905e-05 -5.784384063676166e-05 0 
-5.196427743539488e-05 -9.382693545357008e-05 0 
-0.00010678414440558638 -1.8972262696652392e-05 0 
-7.202254927030496e-05 -8.13216327095058e-05 0 
-0.0001021150725118741 -3.255525425795349e-05 0 
-9.151835945602017e-05 -5.8285291346220615e-05 0 
-2.721727103248333e-05 -0.00010640465757386626 0 
-7.759184486883803e-05 -7.404550091902032e-05 0 
-0.00010126770535897062 -3.855232028654381e-05 0 
-6.647601619668029e-05 -8.419403402207446e-05 0 
-2.6451275557239774e-05 -0.00010609505105542532 0 
-9.317587833071278e-05 -5.314282291356886e-05 0 
-5.144128523149227e-05 -9.726618088443197e-05 0 
-3.3926243219880075e-05 -0.00010269975641611177 0 
-3.4938065090366436e-05 -0.0001015999863741524 0 
-8.697870771459799e-05 -6.304915006622376e-05 0 
-7.15580032475209e-05 -7.969555762581762e-05 0 
-0.00010990202117052014 -2.3513061364153196e-05 0 
-2.9600165283271608e-05 -0.00010293699523414324 0 
-4.2005733777521094e-05 -9.851655278605428e-05 0 
-0.00010694383353021029 -8.059950924418398e-06 0 
-0.00010889497922197197 -7.955020126077451e-06 0 
-0.0001018994906251163 -3.333097153701697e-05 0 
-0.00010457390548974008 -3.4683152859363716e-05 0 
-4.8170805276381494e-05 -9.693744126983306e-05 0 
-8.704648516223807e-05 -6.269028228659022e-05 0 
-9.746973595442511e-05 -4.441060890254396e-05 0 
-2.9238938576643164e-05 -0.0001037934186414709 0 
-5.325017563373355e-05 -9.293275518197603e-05 0 
-8.397527152531382e-06 -0.00010890934407381775 0 
-4.262043995925927e-05 -0.00010158818929551366 0 
-1.7470755835376025e-05 -0.00010620546292881635 0 
-3.316964446057664e-05 -0.00010495575205819574 0 
-6.74725114004729e-05 -8.966736069777392e-05 0 
-8.155097528826096e-05 -6.941694178046682e-05 0 
-0.00010521689617785076 -2.6803100694932296e-05 0 
-7.812274431565294e-05 -8.054234070391738e-05 0 
-0.00010721441479782146 -1.4263920059577159e-05 0 
-8.870496961103127e-05 -6.526640005904622e-05 0 
-6.418282509736286e-05 -8.859328371455777e-05 0 
-9.407691291457817e-05 -5.197776696391103e-05 0 
-6.56022521505815e-05 -8.852390367731587e-05 0 
-9.697540422598218e-05 -5.223561667006869e-05 0 
-4.784078955182865e-05 -9.603425940851299e-05 0 
-9.59432414329584e-05 -5.923890607173651e-05 0 
-6.800641624364251e-06 -0.00010718636574101426 0 
-0.00010688685800929619 -2.3721504082559194e-05 0 
-0.00010925381911895289 -1.2587729212318064e-05 0 
-6.061796889727294e-05 -8.96984190748064e-05 0 
-0.00011242954216420301 -9.10732826448409e-06 0 
-9.120093292543453e-05 -5.981543632403249e-05 0 
-0.00010739477690946772 -1.6904033529819135e-05 0 
-7.826745313156358e-05 -7.42258528519683e-05 0 
-5.5279306687532904e-05 -9.844458086607165e-05 0 
-8.591696568797721e-05 -6.62497884677467e-05 0 
-9.705330125165362e-05 -4.867805601744901e-05 0 
-6.3947292307376e-05 -8.596482066543115e-05 0 
-9.991040052535188e-05 -3.907914629380779e-05 0 
-5.276466594868549e-05 -9.398227439426626e-05 0 
-8.213561627069719e-05 -7.337029109441342e-05 0 
-0.00010119300543856947 -4.352489198234239e-05 0 
-5.4711173262910765e-06 -0.00010727989018597498 0 
-0.0001058634303940494 -1.94591642886473e-05 0 
-7.229767706438655e-05 -8.312090882913772e-05 0 
-5.823710533174265e-06 -0.00010859749798249015 0 
-5.9660507917335864e-05 -9.278142503275314e-05 0 
-9.037553904932979e-05 -6.685927602362451e-05 0 
-6.551344835075436e-05 -8.674968785233442e-05 0 
-0.00010016461690225917 -4.055026330504862e-05 0 
-7.522148029155668e-05 -8.032138873553227e-05 0 
-9.976566565297559e-05 -3.963821624717389e-05 0 
-4.139387225214244e-05 -0.00010075553304974129 0 
-9.937789880963061e-05 -4.157717571822996e-05 0 
-4.027352870372285e-05 -0.0001057238497220619 0 
-4.777573883903763e-05 -9.668141264728616e-05 0 
-0.00010376922608350667 -2.874786758813039e-05 0 
-7.23548002853964e-05 -8.01261942878326e-05 0 
-8.445704596214823e-05 -6.991324090622993e-05 0 
-0.00010435388422907334 -2.5106744539846364e-05 0 
-0.00010872084599592356 -4.993860671911769e-06 0 
-5.829960101237641e-05 -9.204873885309268e-05 0 
-0.00010747463038257173 -2.445447816552941e-05 0 
-2.3934411214570423e-05 -0.00010599991711972324 0 
-6.08915862186696e-05 -8.845396765202317e-05 0 
-1.9538881812035292e-05 -0.00011043395453591589 0 
-7.699581650865541e-05 -7.459580944368583e-05 0 
-8.11099990961873e-05 -7.068075198975623e-05 0 
-0.00010730800732746444 -6.019717051496944e-06 0 
-7.037967963342678e-05 -8.081509239635263e-05 0 
-5.251451856150338e-05 -9.673545127618942e-05 0 
-1.8647259282612873e-05 -0.00010879373768022177 0 
-0.00010637502350412554 -1.2948483071736067e-05 0 
-4.274370402097743e-05 -0.00010127804221630836 0 
-4.528296256760173e-06 -0.00011002150226362047 0 
-0.00010782387437719158 -3.352805163897904e-05 0 
-7.966576182376715e-05 -7.368616819688975e-05 0 
-4.26324873747988e-05 -9.89382284426258e-05 0 
-4.6234392115699365e-05 -9.670357924401583e-05 0 
-1.3860975765776855e-05 -0.0001069575718699658 0 
-5.960578477479396e-05 -8.965212437387403e-05 0 
-0.00010187128692678856 -4.8515810610971846e-05 0 
-0.00010021180788172656 -4.32005903105875e-05 0 
-0.00010253519042779547 -3.3712920339342536e-05 0 
-2.3387938805862204e-05 -0.00010452878549862783 0 
-0.00010476183459033618 -2.2260863907539768e-05 0 
-1.3741684034827097e-05 -0.0001061978957944907 0 
-5.110242967818002e-05 -9.630510013389264e-05 0 
-1.7535870244906594e-05 -0.00010690142318974975 0 
-8.159942860297848e-05 -7.243766334850202e-05 0 
-3.210785278957695e-05 -0.00010434743647197739 0 
-4.7677218959380816e-05 -9.94717821566857e-05 0 
-9.696944500359002e-05 -4.6785452101281034e-05 0 
-7.84960101090705e-05 -7.815904512061325e-05 0 
-0.00010333809320474452 -3.749061920198824e-05 0 
-1.7717527687100436e-05 -0.00010726166446581446 0 
-6.807946280885154e-05 -8.352756027683544e-05 0 
-8.26658855482209e-05 -7.00258841784991e-05 0 
-8.928297117946931e-05 -6.112465477298451e-05 0 
-0.00010773593872638318 -4.056581589050285e-06 0 
-2.3599112924602722e-05 -0.00010786270905970295 0 
-4.593349603366894e-05 -9.812193016005027e-05 0 
-9.501720317463832e-05 -5.653961411047777e-05 0 
-0.00010006057559221944 -4.759718451691879e-05 0 
-9.400013684121983e-05 -5.379940045094652e-05 0 
-0.00010851405072428225 -2.032042309433595e-05 0 
-3.776496052770317e-05 -0.00010082201788981133 0 
-3.7587288658268605e-05 -0.00010039468568206594 0 
-9.097531577610207e-05 -6.269126705304371e-05 0 
-0.0001033610679007598 -3.8924518260260576e-05 0 
-2.6807593028973468e-05 -0.00010417855842058326 0 
-9.630713713230886e-05 -4.690651557492192e-05 0 
-1.996416554975244e-05 -0.00010542674343911985 0 
-7.482012394612667e-05 -7.855177956877073e-05 0 
-9.855753074486091e-06 -0.00010846835471122089 0 
-8.367690734147346e-05 -6.7742712407646e-05 0 
-3.1039496795862686e-05 -0.00010849210836893627 0 
-7.130957792404327e-05 -8.29081928313486e-05 0 
-0.00011032928811008541 -6.684998404961157e-06 0 
-0.00010607571982381107 -2.1865348885217416e-05 0 
-7.752558037526265e-05 -7.643492778395954e-05 0 
-0.000102865410173891 -3.616424513747567e-05 0 
-1.5991279031915236e-05 -0.00010628630184705133 0 
-3.766484569006737e-05 -0.0001018651399783674 0 
-5.015861922208785e-06 -0.00010701222953230009 0 
-6.911603887964509e-05 -8.589409145041843e-05 0 
-8.060360553412081e-05 -7.056470608617664e-05 0 
-8.408982734209448e-05 -6.635912060591883e-05 0 
-3.931590237333189e-05 -0.00010318929728949365 0 
-6.189954814392523e-05 -9.503982325144096e-05 0 
-0.00011154556447815555 -1.6457786951594935e-05 0 
-9.813353254798945e-05 -4.634260663269267e-05 0 
-7.042348016246961e-06 -0.00010806634729395559 0 
-3.4134426021148814e-05 -0.00010366456587634657 0 
-7.464455709540156e-05 -8.483841331833644e-05 0 
-2.9000791302796803e-05 -0.0001032809890197301 0 
-0.00010327351678175815 -2.8968723002110598e-05 0 
-3.128637524184207e-05 -0.00010248979148546299 0 
-9.32652483163732e-05 -5.8848088215589384e-05 0 
-0.00010707422427754074 -4.7305602015068705e-06 0 
-0.00010536146451990126 -2.7647037283540812e-05 0 
-0.00011024193488742491 -4.638356280324135e-06 0 
-9.769310982685468e-05 -4.392726313817026e-05 0 
-9.507270714405821e-05 -4.956015145342583e-05 0 
-8.502221725850268e-05 -6.527694750712726e-05 0 