# vtk DataFile Version 4.2
vtk output
ASCII
DATASET UNSTRUCTURED_GRID
POINTS 157 double
-0.5 0.5 0 -0.5 -0.5 0 0.5 0.5 0 
0.5 -0.5 0 -0.5 0.3 0 -0.5 0.1 0 
-0.5 -0.099999999999 0 -0.5 -0.3 0 -0.5 0.4 0 
-0.5 0.2 0 -0.5 1.3872236693e-12 0 -0.5 -0.2 0 
-0.5 -0.4 0 -0.3 -0.5 0 -0.1 -0.5 0 
0.099999999999 -0.5 0 0.3 -0.5 0 -0.4 -0.5 0 
-0.2 -0.5 0 -1.3872236693e-12 -0.5 0 0.2 -0.5 0 
0.4 -0.5 0 0.5 -0.3 0 0.5 -0.1 0 
0.5 0.099999999999 0 0.5 0.3 0 0.5 -0.4 0 
0.5 -0.2 0 0.5 -1.3872236693e-12 0 0.5 0.2 0 
0.5 0.4 0 0.3 0.5 0 0.1 0.5 0 
-0.099999999999 0.5 0 -0.3 0.5 0 0.4 0.5 0 
0.2 0.5 0 1.3872236693e-12 0.5 0 -0.2 0.5 0 
-0.4 0.5 0 5.0975196286e-13 7.7726713954e-13 0 -0.2125 -0.2125 0 
-0.2125 0.2125 0 0.2125 -0.2125 0 0.2125 0.2125 0 
0.29606445313 -0.010326086956 0 0.010326086957 0.29606445313 0 -0.010326086956 -0.29606445312 0 
-0.29606445312 0.010326086957 0 -0.33291666667 -0.33291666667 0 -0.33291666667 0.33291666667 0 
0.33291666667 -0.33291666667 0 0.33291666667 0.33291666667 0 -0.13165665125 -0.069655688492 0 
0.075529168305 -0.11679537584 0 -0.068965971683 0.13145230774 0 0.1169529575 0.075423661106 0 
-0.36829622396 -0.18701811594 0 -0.18701811594 0.36829622396 0 0.18701811594 -0.36829622396 0 
0.36829622396 0.18701811594 0 -0.18793720885 -0.36749953497 0 -0.36749953497 0.18793720885 0 
0.36749953497 -0.18793720885 0 0.18793720885 0.36749953497 0 -0.11141304348 -0.25428222656 0 
-0.070991369105 -0.18286007081 0 -0.17207832563 -0.14107784425 0 0.032601540674 -0.20642991448 0 
-0.028063741475 -0.093225532165 0 -0.25428222656 0.11141304348 0 -0.1825152124 0.070889197348 0 
-0.14073298584 0.17197615387 0 -0.21386055219 -0.029664800767 0 -0.10031131147 0.030898309624 0 
0.18579681072 -0.063560731398 0 0.20650870531 0.032548787075 0 0.096241062902 -0.020685857367 0 
0.25428222656 -0.11141304348 0 0.14401458415 -0.16464768792 0 -0.029319942363 0.21375838043 0 
0.023993492908 0.10343798442 0 0.063639522228 0.18574405712 0 0.11141304348 0.25428222656 0 
0.16472647875 0.14396183055 0 0.39803222656 0.044836956521 0 0.39803222656 -0.055163043479 0 
-0.044836956521 0.39803222656 0 0.055163043479 0.39803222656 0 0.044836956521 -0.39803222656 0 
-0.055163043479 -0.39803222656 0 -0.39803222656 -0.044836956521 0 -0.39803222656 0.055163043479 0 
-0.31645833333 -0.41645833333 0 -0.41645833333 -0.41645833333 0 -0.41645833333 -0.31645833333 0 
-0.41645833333 0.31645833333 0 -0.41645833333 0.41645833333 0 -0.31645833333 0.41645833333 0 
0.41645833333 -0.31645833333 0 0.41645833333 -0.41645833333 0 0.31645833333 -0.41645833333 0 
0.31645833333 0.41645833333 0 0.41645833333 0.41645833333 0 0.41645833333 0.31645833333 0 
0.33178199405 -0.099131647904 0 0.43374976749 -0.14396860443 0 0.099131647904 0.33178199405 0 
0.14396860443 0.43374976749 0 -0.099131647904 -0.33178199405 0 -0.14396860443 -0.43374976748 0 
-0.33178199405 0.099131647904 0 -0.43374976749 0.14396860443 0 0.20021860443 0.28999976749 0 
0.28999976749 -0.20021860443 0 0.25428222656 0.10108695652 0 0.33218033854 0.088346014493 0 
0.29039811198 0.19975905797 0 0.43414811198 0.14350905797 0 -0.10108695652 0.25428222656 0 
-0.088346014492 0.33218033854 0 -0.19975905797 0.29039811198 0 -0.28999976749 0.20021860443 0 
-0.20021860442 -0.28999976748 0 -0.14350905797 0.43414811198 0 0.10108695652 -0.25428222656 0 
0.088346014493 -0.33218033854 0 0.19975905797 -0.29039811198 0 0.14350905797 -0.43414811198 0 
-0.25428222656 -0.10108695652 0 -0.33218033854 -0.088346014492 0 -0.29039811198 -0.19975905797 0 
-0.43414811198 -0.14350905797 0 0.037764584153 -0.058397687919 0 0.05847647875 0.037711830553 0 
-0.034482985841 0.06572615387 0 -0.065828325627 -0.034827844245 0 -0.43414811198 -0.24350905797 0 
-0.24396860443 -0.43374976748 0 -0.24350905797 0.43414811198 0 -0.43374976749 0.24396860443 0 
0.24350905797 -0.43414811198 0 0.43374976749 -0.24396860443 0 0.43414811198 0.24350905797 0 
0.24396860443 0.43374976749 0 -0.26042693776 -0.35020810082 0 -0.35060644531 -0.2599673913 0 
-0.35020810082 0.26042693776 0 0.35020810082 -0.26042693776 0 -0.2599673913 0.35060644531 0 
0.2599673913 -0.35060644531 0 0.26042693776 0.35020810082 0 0.35060644531 0.2599673913 0 
-0.27270833333 -0.27270833333 0 -0.27270833333 0.27270833333 0 0.27270833333 -0.27270833333 0 
0.27270833333 0.27270833333 0 
CELLS 68 476
6 41 47 53 65 66 67 
6 53 47 54 66 68 69 
6 42 48 55 70 71 72 
6 48 53 55 73 74 71 
6 54 45 56 75 76 77 
6 43 45 54 78 75 79 
6 46 55 56 80 81 82 
6 44 46 56 83 82 84 
6 23 24 45 28 85 86 
6 32 33 46 37 87 88 
6 14 15 47 19 89 90 
6 5 6 48 10 91 92 
6 1 13 49 17 93 94 
6 7 1 49 12 94 95 
6 0 4 50 8 96 97 
6 34 0 50 39 97 98 
6 3 22 51 26 99 100 
6 16 3 51 21 100 101 
6 2 31 52 35 102 103 
6 25 2 52 30 103 104 
6 23 45 63 86 105 106 
6 32 46 64 88 107 108 
6 14 47 61 90 109 110 
6 5 48 62 92 111 112 
6 46 44 64 83 113 107 
6 45 43 63 78 114 105 
6 44 45 60 115 116 117 
6 45 24 60 85 118 116 
6 42 46 58 119 120 121 
6 48 42 62 70 122 111 
6 47 41 61 65 123 109 
6 46 33 58 87 124 120 
6 43 47 59 125 126 127 
6 47 15 59 89 128 126 
6 41 48 57 129 130 131 
6 48 6 57 91 132 130 
6 40 54 56 133 77 134 
6 55 40 56 135 134 81 
6 45 44 56 115 84 76 
6 46 42 55 119 72 80 
6 47 43 54 125 79 68 
6 48 41 53 129 67 73 
6 40 53 54 136 69 133 
6 53 40 55 136 135 74 
6 6 7 57 11 137 132 
6 13 14 61 18 110 138 
6 33 34 58 38 139 124 
6 4 5 62 9 112 140 
6 15 16 59 20 141 128 
6 22 23 63 27 106 142 
6 24 25 60 29 143 118 
6 31 32 64 36 108 144 
6 49 13 61 93 138 145 
6 7 49 57 95 146 137 
6 50 4 62 96 140 147 
6 51 22 63 99 142 148 
6 34 50 58 98 149 139 
6 16 51 59 101 150 141 
6 52 31 64 102 144 151 
6 25 52 60 104 152 143 
6 49 41 57 153 131 146 
6 50 42 58 154 121 149 
6 51 43 59 155 127 150 
6 41 49 61 153 145 123 
6 52 44 60 156 117 152 
6 42 50 62 154 147 122 
6 43 51 63 155 148 114 
6 44 52 64 156 151 113 

CELL_TYPES 68
22
22
22
22
22
22
22
22
22
22
22
22
22
22
22
22
22
22
22
22
22
22
22
22
22
22
22
22
22
22
22
22
22
22
22
22
22
22
22
22
22
22
22
22
22
22
22
22
22
22
22
22
22
22
22
22
22
22
22
22
22
22
22
22
22
22
22
22

POINT_DATA 157
SCALARS field double
LOOKUP_TABLE default
-0.5 -0.5 0.5 0.5 -0.5 -0.5 -0.5 -0.5 -0.5 
-0.5 -0.5 -0.5 -0.5 -0.3 -0.1 0.099999999999 0.3 -0.4 
-0.2 -1.3872236693e-12 0.2 0.4 0.5 0.5 0.5 0.5 0.5 
0.5 0.5 0.5 0.5 0.3 0.1 -0.099999999999 -0.3 0.4 
0.2 1.3872236693e-12 -0.2 -0.4 5.0975196286e-13 -0.2125 -0.2125 0.2125 0.2125 
0.29606445313 0.010326086957 -0.010326086956 -0.29606445312 -0.33291666667 -0.33291666667 0.33291666667 0.33291666667 -0.13165665125 
0.075529168305 -0.068965971683 0.1169529575 -0.36829622396 -0.18701811594 0.18701811594 0.36829622396 -0.18793720885 -0.36749953497 
0.36749953497 0.18793720885 -0.11141304348 -0.070991369105 -0.17207832563 0.032601540674 -0.028063741475 -0.25428222656 -0.1825152124 
-0.14073298584 -0.21386055219 -0.10031131147 0.18579681072 0.20650870531 0.096241062902 0.25428222656 0.14401458415 -0.029319942363 
0.023993492908 0.063639522228 0.11141304348 0.16472647875 0.39803222656 0.39803222656 -0.044836956521 0.055163043479 0.044836956521 
-0.055163043479 -0.39803222656 -0.39803222656 -0.31645833333 -0.41645833333 -0.41645833333 -0.41645833333 -0.41645833333 -0.31645833333 
0.41645833333 0.41645833333 0.31645833333 0.31645833333 0.41645833333 0.41645833333 0.33178199405 0.43374976749 0.099131647904 
0.14396860443 -0.099131647904 -0.14396860443 -0.33178199405 -0.43374976749 0.20021860443 0.28999976749 0.25428222656 0.33218033854 
0.29039811198 0.43414811198 -0.10108695652 -0.088346014492 -0.19975905797 -0.28999976749 -0.20021860442 -0.14350905797 0.10108695652 
0.088346014493 0.19975905797 0.14350905797 -0.25428222656 -0.33218033854 -0.29039811198 -0.43414811198 0.037764584153 0.05847647875 
-0.034482985841 -0.065828325627 -0.43414811198 -0.24396860443 -0.24350905797 -0.43374976749 0.24350905797 0.43374976749 0.43414811198 
0.24396860443 -0.26042693776 -0.35060644531 -0.35020810082 0.35020810082 -0.2599673913 0.2599673913 0.26042693776 0.35060644531 
-0.27270833333 -0.27270833333 0.27270833333 0.27270833333 
FIELD FieldData 1
value 9 157 double
-0.5 0.5 0 -0.5 0.5 0 -0.5 0.5 0 
-0.5 -0.5 0 -0.5 -0.5 0 -0.5 -0.5 0 
0.5 0.5 0 0.5 0.5 0 0.5 0.5 0 
0.5 -0.5 0 0.5 -0.5 0 0.5 -0.5 0 
-0.5 0.3 0 -0.5 0.3 0 -0.5 0.3 0 
-0.5 0.1 0 -0.5 0.1 0 -0.5 0.1 0 
-0.5 -0.099999999999 0 -0.5 -0.099999999999 0 -0.5 -0.099999999999 0 
-0.5 -0.3 0 -0.5 -0.3 0 -0.5 -0.3 0 
-0.5 0.4 0 -0.5 0.4 0 -0.5 0.4 0 
-0.5 0.2 0 -0.5 0.2 0 -0.5 0.2 0 
-0.5 1.3872236693e-12 0 -0.5 1.3872236693e-12 0 -0.5 1.3872236693e-12 0 
-0.5 -0.2 0 -0.5 -0.2 0 -0.5 -0.2 0 
-0.5 -0.4 0 -0.5 -0.4 0 -0.5 -0.4 0 
-0.3 -0.5 0 -0.3 -0.5 0 -0.3 -0.5 0 
-0.1 -0.5 0 -0.1 -0.5 0 -0.1 -0.5 0 
0.099999999999 -0.5 0 0.099999999999 -0.5 0 0.099999999999 -0.5 0 
0.3 -0.5 0 0.3 -0.5 0 0.3 -0.5 0 
-0.4 -0.5 0 -0.4 -0.5 0 -0.4 -0.5 0 
-0.2 -0.5 0 -0.2 -0.5 0 -0.2 -0.5 0 
-1.3872236693e-12 -0.5 0 -1.3872236693e-12 -0.5 0 -1.3872236693e-12 -0.5 0 
0.2 -0.5 0 0.2 -0.5 0 0.2 -0.5 0 
0.4 -0.5 0 0.4 -0.5 0 0.4 -0.5 0 
0.5 -0.3 0 0.5 -0.3 0 0.5 -0.3 0 
0.5 -0.1 0 0.5 -0.1 0 0.5 -0.1 0 
0.5 0.099999999999 0 0.5 0.099999999999 0 0.5 0.099999999999 0 
0.5 0.3 0 0.5 0.3 0 0.5 0.3 0 
0.5 -0.4 0 0.5 -0.4 0 0.5 -0.4 0 
0.5 -0.2 0 0.5 -0.2 0 0.5 -0.2 0 
0.5 -1.3872236693e-12 0 0.5 -1.3872236693e-12 0 0.5 -1.3872236693e-12 0 
0.5 0.2 0 0.5 0.2 0 0.5 0.2 0 
0.5 0.4 0 0.5 0.4 0 0.5 0.4 0 
0.3 0.5 0 0.3 0.5 0 0.3 0.5 0 
0.1 0.5 0 0.1 0.5 0 0.1 0.5 0 
-0.099999999999 0.5 0 -0.099999999999 0.5 0 -0.099999999999 0.5 0 
-0.3 0.5 0 -0.3 0.5 0 -0.3 0.5 0 
0.4 0.5 0 0.4 0.5 0 0.4 0.5 0 
0.2 0.5 0 0.2 0.5 0 0.2 0.5 0 
1.3872236693e-12 0.5 0 1.3872236693e-12 0.5 0 1.3872236693e-12 0.5 0 
-0.2 0.5 0 -0.2 0.5 0 -0.2 0.5 0 
-0.4 0.5 0 -0.4 0.5 0 -0.4 0.5 0 
5.0975196286e-13 7.7726713954e-13 0 5.0975196286e-13 7.7726713954e-13 0 5.0975196286e-13 7.7726713954e-13 0 
-0.2125 -0.2125 0 -0.2125 -0.2125 0 -0.2125 -0.2125 0 
-0.2125 0.2125 0 -0.2125 0.2125 0 -0.2125 0.2125 0 
0.2125 -0.2125 0 0.2125 -0.2125 0 0.2125 -0.2125 0 
0.2125 0.2125 0 0.2125 0.2125 0 0.2125 0.2125 0 
0.29606445313 -0.010326086956 0 0.29606445313 -0.010326086956 0 0.29606445313 -0.010326086956 0 
0.010326086957 0.29606445313 0 0.010326086957 0.29606445313 0 0.010326086957 0.29606445313 0 
-0.010326086956 -0.29606445312 0 -0.010326086956 -0.29606445312 0 -0.010326086956 -0.29606445312 0 
-0.29606445312 0.010326086957 0 -0.29606445312 0.010326086957 0 -0.29606445312 0.010326086957 0 
-0.33291666667 -0.33291666667 0 -0.33291666667 -0.33291666667 0 -0.33291666667 -0.33291666667 0 
-0.33291666667 0.33291666667 0 -0.33291666667 0.33291666667 0 -0.33291666667 0.33291666667 0 
0.33291666667 -0.33291666667 0 0.33291666667 -0.33291666667 0 0.33291666667 -0.33291666667 0 
0.33291666667 0.33291666667 0 0.33291666667 0.33291666667 0 0.33291666667 0.33291666667 0 
-0.13165665125 -0.069655688492 0 -0.13165665125 -0.069655688492 0 -0.13165665125 -0.069655688492 0 
0.075529168305 -0.11679537584 0 0.075529168305 -0.11679537584 0 0.075529168305 -0.11679537584 0 
-0.068965971683 0.13145230774 0 -0.068965971683 0.13145230774 0 -0.068965971683 0.13145230774 0 
0.1169529575 0.075423661106 0 0.1169529575 0.075423661106 0 0.1169529575 0.075423661106 0 
-0.36829622396 -0.18701811594 0 -0.36829622396 -0.18701811594 0 -0.36829622396 -0.18701811594 0 
-0.18701811594 0.36829622396 0 -0.18701811594 0.36829622396 0 -0.18701811594 0.36829622396 0 
0.18701811594 -0.36829622396 0 0.18701811594 -0.36829622396 0 0.18701811594 -0.36829622396 0 
0.36829622396 0.18701811594 0 0.36829622396 0.18701811594 0 0.36829622396 0.18701811594 0 
-0.18793720885 -0.36749953497 0 -0.18793720885 -0.36749953497 0 -0.18793720885 -0.36749953497 0 
-0.36749953497 0.18793720885 0 -0.36749953497 0.18793720885 0 -0.36749953497 0.18793720885 0 
0.36749953497 -0.18793720885 0 0.36749953497 -0.18793720885 0 0.36749953497 -0.18793720885 0 
0.18793720885 0.36749953497 0 0.18793720885 0.36749953497 0 0.18793720885 0.36749953497 0 
-0.11141304348 -0.25428222656 0 -0.11141304348 -0.25428222656 0 -0.11141304348 -0.25428222656 0 
-0.070991369105 -0.18286007081 0 -0.070991369105 -0.18286007081 0 -0.070991369105 -0.18286007081 0 
-0.17207832563 -0.14107784425 0 -0.17207832563 -0.14107784425 0 -0.17207832563 -0.14107784425 0 
0.032601540674 -0.20642991448 0 0.032601540674 -0.20642991448 0 0.032601540674 -0.20642991448 0 
-0.028063741475 -0.093225532165 0 -0.028063741475 -0.093225532165 0 -0.028063741475 -0.093225532165 0 
-0.25428222656 0.11141304348 0 -0.25428222656 0.11141304348 0 -0.25428222656 0.11141304348 0 
-0.1825152124 0.070889197348 0 -0.1825152124 0.070889197348 0 -0.1825152124 0.070889197348 0 
-0.14073298584 0.17197615387 0 -0.14073298584 0.17197615387 0 -0.14073298584 0.17197615387 0 
-0.21386055219 -0.029664800767 0 -0.21386055219 -0.029664800767 0 -0.21386055219 -0.029664800767 0 
-0.10031131147 0.030898309624 0 -0.10031131147 0.030898309624 0 -0.10031131147 0.030898309624 0 
0.18579681072 -0.063560731398 0 0.18579681072 -0.063560731398 0 0.18579681072 -0.063560731398 0 
0.20650870531 0.032548787075 0 0.20650870531 0.032548787075 0 0.20650870531 0.032548787075 0 
0.096241062902 -0.020685857367 0 0.096241062902 -0.020685857367 0 0.096241062902 -0.020685857367 0 
0.25428222656 -0.11141304348 0 0.25428222656 -0.11141304348 0 0.25428222656 -0.11141304348 0 
0.14401458415 -0.16464768792 0 0.14401458415 -0.16464768792 0 0.14401458415 -0.16464768792 0 
-0.029319942363 0.21375838043 0 -0.029319942363 0.21375838043 0 -0.029319942363 0.21375838043 0 
0.023993492908 0.10343798442 0 0.023993492908 0.10343798442 0 0.023993492908 0.10343798442 0 
0.063639522228 0.18574405712 0 0.063639522228 0.18574405712 0 0.063639522228 0.18574405712 0 
0.11141304348 0.25428222656 0 0.11141304348 0.25428222656 0 0.11141304348 0.25428222656 0 
0.16472647875 0.14396183055 0 0.16472647875 0.14396183055 0 0.16472647875 0.14396183055 0 
0.39803222656 0.044836956521 0 0.39803222656 0.044836956521 0 0.39803222656 0.044836956521 0 
0.39803222656 -0.055163043479 0 0.39803222656 -0.055163043479 0 0.39803222656 -0.055163043479 0 
-0.044836956521 0.39803222656 0 -0.044836956521 0.39803222656 0 -0.044836956521 0.39803222656 0 
0.055163043479 0.39803222656 0 0.055163043479 0.39803222656 0 0.055163043479 0.39803222656 0 
0.044836956521 -0.39803222656 0 0.044836956521 -0.39803222656 0 0.044836956521 -0.39803222656 0 
-0.055163043479 -0.39803222656 0 -0.055163043479 -0.39803222656 0 -0.055163043479 -0.39803222656 0 
-0.39803222656 -0.044836956521 0 -0.39803222656 -0.044836956521 0 -0.39803222656 -0.044836956521 0 
-0.39803222656 0.055163043479 0 -0.39803222656 0.055163043479 0 -0.39803222656 0.055163043479 0 
-0.31645833333 -0.41645833333 0 -0.31645833333 -0.41645833333 0 -0.31645833333 -0.41645833333 0 
-0.41645833333 -0.41645833333 0 -0.41645833333 -0.41645833333 0 -0.41645833333 -0.41645833333 0 
-0.41645833333 -0.31645833333 0 -0.41645833333 -0.31645833333 0 -0.41645833333 -0.31645833333 0 
-0.41645833333 0.31645833333 0 -0.41645833333 0.31645833333 0 -0.41645833333 0.31645833333 0 
-0.41645833333 0.41645833333 0 -0.41645833333 0.41645833333 0 -0.41645833333 0.41645833333 0 
-0.31645833333 0.41645833333 0 -0.31645833333 0.41645833333 0 -0.31645833333 0.41645833333 0 
0.41645833333 -0.31645833333 0 0.41645833333 -0.31645833333 0 0.41645833333 -0.31645833333 0 
0.41645833333 -0.41645833333 0 0.41645833333 -0.41645833333 0 0.41645833333 -0.41645833333 0 
0.31645833333 -0.41645833333 0 0.31645833333 -0.41645833333 0 0.31645833333 -0.41645833333 0 
0.31645833333 0.41645833333 0 0.31645833333 0.41645833333 0 0.31645833333 0.41645833333 0 
0.41645833333 0.41645833333 0 0.41645833333 0.41645833333 0 0.41645833333 0.41645833333 0 
0.41645833333 0.31645833333 0 0.41645833333 0.31645833333 0 0.41645833333 0.31645833333 0 
0.33178199405 -0.099131647904 0 0.33178199405 -0.099131647904 0 0.33178199405 -0.099131647904 0 
0.43374976749 -0.14396860443 0 0.43374976749 -0.14396860443 0 0.43374976749 -0.14396860443 0 
0.099131647904 0.33178199405 0 0.099131647904 0.33178199405 0 0.099131647904 0.33178199405 0 
0.14396860443 0.43374976749 0 0.14396860443 0.43374976749 0 0.14396860443 0.43374976749 0 
-0.099131647904 -0.33178199405 0 -0.099131647904 -0.33178199405 0 -0.099131647904 -0.33178199405 0 
-0.14396860443 -0.43374976748 0 -0.14396860443 -0.43374976748 0 -0.14396860443 -0.43374976748 0 
-0.33178199405 0.099131647904 0 -0.33178199405 0.099131647904 0 -0.33178199405 0.099131647904 0 
-0.43374976749 0.14396860443 0 -0.43374976749 0.14396860443 0 -0.43374976749 0.14396860443 0 
0.20021860443 0.28999976749 0 0.20021860443 0.28999976749 0 0.20021860443 0.28999976749 0 
0.28999976749 -0.20021860443 0 0.28999976749 -0.20021860443 0 0.28999976749 -0.20021860443 0 
0.25428222656 0.10108695652 0 0.25428222656 0.10108695652 0 0.25428222656 0.10108695652 0 
0.33218033854 0.088346014493 0 0.33218033854 0.088346014493 0 0.33218033854 0.088346014493 0 
0.29039811198 0.19975905797 0 0.29039811198 0.19975905797 0 0.29039811198 0.19975905797 0 
0.43414811198 0.14350905797 0 0.43414811198 0.14350905797 0 0.43414811198 0.14350905797 0 
-0.10108695652 0.25428222656 0 -0.10108695652 0.25428222656 0 -0.10108695652 0.25428222656 0 
-0.088346014492 0.33218033854 0 -0.088346014492 0.33218033854 0 -0.088346014492 0.33218033854 0 
-0.19975905797 0.29039811198 0 -0.19975905797 0.29039811198 0 -0.19975905797 0.29039811198 0 
-0.28999976749 0.20021860443 0 -0.28999976749 0.20021860443 0 -0.28999976749 0.20021860443 0 
-0.20021860442 -0.28999976748 0 -0.20021860442 -0.28999976748 0 -0.20021860442 -0.28999976748 0 
-0.14350905797 0.43414811198 0 -0.14350905797 0.43414811198 0 -0.14350905797 0.43414811198 0 
0.10108695652 -0.25428222656 0 0.10108695652 -0.25428222656 0 0.10108695652 -0.25428222656 0 
0.088346014493 -0.33218033854 0 0.088346014493 -0.33218033854 0 0.088346014493 -0.33218033854 0 
0.19975905797 -0.29039811198 0 0.19975905797 -0.29039811198 0 0.19975905797 -0.29039811198 0 
0.14350905797 -0.43414811198 0 0.14350905797 -0.43414811198 0 0.14350905797 -0.43414811198 0 
-0.25428222656 -0.10108695652 0 -0.25428222656 -0.10108695652 0 -0.25428222656 -0.10108695652 0 
-0.33218033854 -0.088346014492 0 -0.33218033854 -0.088346014492 0 -0.33218033854 -0.088346014492 0 
-0.29039811198 -0.19975905797 0 -0.29039811198 -0.19975905797 0 -0.29039811198 -0.19975905797 0 
-0.43414811198 -0.14350905797 0 -0.43414811198 -0.14350905797 0 -0.43414811198 -0.14350905797 0 
0.037764584153 -0.058397687919 0 0.037764584153 -0.058397687919 0 0.037764584153 -0.058397687919 0 
0.05847647875 0.037711830553 0 0.05847647875 0.037711830553 0 0.05847647875 0.037711830553 0 
-0.034482985841 0.06572615387 0 -0.034482985841 0.06572615387 0 -0.034482985841 0.06572615387 0 
-0.065828325627 -0.034827844245 0 -0.065828325627 -0.034827844245 0 -0.065828325627 -0.034827844245 0 
-0.43414811198 -0.24350905797 0 -0.43414811198 -0.24350905797 0 -0.43414811198 -0.24350905797 0 
-0.24396860443 -0.43374976748 0 -0.24396860443 -0.43374976748 0 -0.24396860443 -0.43374976748 0 
-0.24350905797 0.43414811198 0 -0.24350905797 0.43414811198 0 -0.24350905797 0.43414811198 0 
-0.43374976749 0.24396860443 0 -0.43374976749 0.24396860443 0 -0.43374976749 0.24396860443 0 
0.24350905797 -0.43414811198 0 0.24350905797 -0.43414811198 0 0.24350905797 -0.43414811198 0 
0.43374976749 -0.24396860443 0 0.43374976749 -0.24396860443 0 0.43374976749 -0.24396860443 0 
0.43414811198 0.24350905797 0 0.43414811198 0.24350905797 0 0.43414811198 0.24350905797 0 
0.24396860443 0.43374976749 0 0.24396860443 0.43374976749 0 0.24396860443 0.43374976749 0 
-0.26042693776 -0.35020810082 0 -0.26042693776 -0.35020810082 0 -0.26042693776 -0.35020810082 0 
-0.35060644531 -0.2599673913 0 -0.35060644531 -0.2599673913 0 -0.35060644531 -0.2599673913 0 
-0.35020810082 0.26042693776 0 -0.35020810082 0.26042693776 0 -0.35020810082 0.26042693776 0 
0.35020810082 -0.26042693776 0 0.35020810082 -0.26042693776 0 0.35020810082 -0.26042693776 0 
-0.2599673913 0.35060644531 0 -0.2599673913 0.35060644531 0 -0.2599673913 0.35060644531 0 
0.2599673913 -0.35060644531 0 0.2599673913 -0.35060644531 0 0.2599673913 -0.35060644531 0 
0.26042693776 0.35020810082 0 0.26042693776 0.35020810082 0 0.26042693776 0.35020810082 0 
0.35060644531 0.2599673913 0 0.35060644531 0.2599673913 0 0.35060644531 0.2599673913 0 
-0.27270833333 -0.27270833333 0 -0.27270833333 -0.27270833333 0 -0.27270833333 -0.27270833333 0 
-0.27270833333 0.27270833333 0 -0.27270833333 0.27270833333 0 -0.27270833333 0.27270833333 0 
0.27270833333 -0.27270833333 0 0.27270833333 -0.27270833333 0 0.27270833333 -0.27270833333 0 
0.27270833333 0.27270833333 0 0.27270833333 0.27270833333 0 0.27270833333 0.27270833333 0 

