# vtk DataFile Version 4.1
Exported OTI solution
ASCII
DATASET UNSTRUCTURED_GRID
POINTS 479 double
1.0 0.5 0.0
1.0 -0.5 0.0
1.5 0.5 0.0
1.5 -0.5 0.0
1.0 0.461538461539 0.0
1.0 0.423076923077 0.0
1.0 0.384615384616 0.0
1.0 0.346153846154 0.0
1.0 0.307692307693 0.0
1.0 0.269230769231 0.0
1.0 0.23076923077 0.0
1.0 0.192307692309 0.0
1.0 0.153846153847 0.0
1.0 0.115384615386 0.0
1.0 0.0769230769243 0.0
1.0 0.0384615384628 0.0
1.0 1.37612143902e-12 0.0
1.0 -0.0384615384603 0.0
1.0 -0.0769230769219 0.0
1.0 -0.115384615384 0.0
1.0 -0.153846153845 0.0
1.0 -0.192307692307 0.0
1.0 -0.230769230768 0.0
1.0 -0.26923076923 0.0
1.0 -0.307692307692 0.0
1.0 -0.346153846153 0.0
1.0 -0.384615384615 0.0
1.0 -0.423076923077 0.0
1.0 -0.461538461538 0.0
1.03571428571 -0.5 0.0
1.07142857143 -0.5 0.0
1.10714285714 -0.5 0.0
1.14285714286 -0.5 0.0
1.17857142857 -0.5 0.0
1.21428571429 -0.5 0.0
1.25 -0.5 0.0
1.28571428571 -0.5 0.0
1.32142857143 -0.5 0.0
1.35714285714 -0.5 0.0
1.39285714286 -0.5 0.0
1.42857142857 -0.5 0.0
1.46428571429 -0.5 0.0
1.5 -0.461538461539 0.0
1.5 -0.423076923077 0.0
1.5 -0.384615384616 0.0
1.5 -0.346153846154 0.0
1.5 -0.307692307693 0.0
1.5 -0.269230769231 0.0
1.5 -0.23076923077 0.0
1.5 -0.192307692309 0.0
1.5 -0.153846153847 0.0
1.5 -0.115384615386 0.0
1.5 -0.0769230769243 0.0
1.5 -0.0384615384628 0.0
1.5 -1.37612143902e-12 0.0
1.5 0.0384615384603 0.0
1.5 0.0769230769219 0.0
1.5 0.115384615384 0.0
1.5 0.153846153845 0.0
1.5 0.192307692307 0.0
1.5 0.230769230768 0.0
1.5 0.26923076923 0.0
1.5 0.307692307692 0.0
1.5 0.346153846153 0.0
1.5 0.384615384615 0.0
1.5 0.423076923077 0.0
1.5 0.461538461538 0.0
1.46428571429 0.5 0.0
1.42857142857 0.5 0.0
1.39285714286 0.5 0.0
1.35714285714 0.5 0.0
1.32142857143 0.5 0.0
1.28571428571 0.5 0.0
1.25 0.5 0.0
1.21428571429 0.5 0.0
1.17857142857 0.5 0.0
1.14285714286 0.5 0.0
1.10714285714 0.5 0.0
1.07142857143 0.5 0.0
1.03571428571 0.5 0.0
1.23651153661 -0.253855195289 0.0
1.25720865617 0.251674330733 0.0
1.25429920572 -0.00142071830855 0.0
1.3457538982 -0.111700997952 0.0
1.34024565625 0.128339325014 0.0
1.1496528957 0.127084458431 0.0
1.16079547124 -0.128285099014 0.0
1.35840836779 -0.350869936722 0.0
1.15179143467 0.362283685183 0.0
1.35534788875 0.350667346097 0.0
1.14478137409 -0.350410639387 0.0
1.3715215117 0.000939093354604 0.0
1.12871083148 -0.000859764342914 0.0
1.37854133768 -0.24075292931 0.0
1.37512675254 0.23718175136 0.0
1.13320413622 0.235423602221 0.0
1.12248586742 -0.23862727756 0.0
1.25448416536 -0.390041232981 0.0
1.24411481254 0.388888884066 0.0
1.25986658577 -0.152697285305 0.0
1.26078355679 0.167184120535 0.0
1.08058188726 0.40454149512 0.0
1.41972094122 -0.404156382852 0.0
1.41430115155 0.418481442153 0.0
1.08561231598 -0.418550255294 0.0
1.09310772459 -0.0701563089351 0.0
1.41821704266 0.0793028463862 0.0
1.40709063494 -0.0731143263313 0.0
1.08855602641 0.0811785671751 0.0
1.41717797884 -0.173232390016 0.0
1.41529020438 0.172887305318 0.0
1.0910219314 0.166778514401 0.0
1.08634736326 -0.1714973874 0.0
1.28290219816 -0.0783862479834 0.0
1.27413652739 0.0728671754798 0.0
1.18859044795 -0.0421140410368 0.0
1.41427347337 -0.315462173363 0.0
1.41814114562 0.313743595883 0.0
1.08920619374 0.31483566722 0.0
1.08161238985 -0.313727600191 0.0
1.3190562582 -0.41965085625 0.0
1.18001574521 0.421386224434 0.0
1.32302037699 0.417877136563 0.0
1.17708757501 -0.417893804814 0.0
1.1942696593 0.0324116231016 0.0
1.30202349714 -0.311778069115 0.0
1.20724175825 0.320479844176 0.0
1.19759261646 0.188227359226 0.0
1.17754451767 -0.200702474155 0.0
1.29085044647 -0.191277772693 0.0
1.30244039047 0.206282990416 0.0
1.16935974973 -0.281842278805 0.0
1.32898995377 0.286300276194 0.0
1.34071505211 0.0516016789954 0.0
1.16790250815 0.266283178103 0.0
1.21668628936 -0.339957414253 0.0
1.28604239989 0.338245818921 0.0
1.3107229099 -0.0234305324332 0.0
1.42321034626 -0.0248803342709 0.0
1.06698203564 0.0175059409713 0.0
1.43406328117 -0.24659655815 0.0
1.43370710493 0.245819402511 0.0
1.35592067075 -0.0624907419334 0.0
1.0669392002 0.245400726177 0.0
1.0665847012 -0.245779525008 0.0
1.43169696482 -0.356885378055 0.0
1.43426043177 0.376839164269 0.0
1.06951019784 0.357160201282 0.0
1.0656748645 -0.376984187294 0.0
1.21573847532 -0.10243974387 0.0
1.23291147852 -0.447541922193 0.0
1.26711515511 0.447527806378 0.0
1.19766737566 0.113864899507 0.0
1.3589065478 -0.185514669246 0.0
1.37071835492 0.180021049913 0.0
1.12770610043 0.174206470074 0.0
1.14489714208 -0.18639540964 0.0
1.3688448922 -0.440169534515 0.0
1.13130900639 0.440610330781 0.0
1.37148398651 -0.304603651228 0.0
1.13478148673 0.296110603746 0.0
1.13495094526 0.0761131330893 0.0
1.05212690057 -0.115669270462 0.0
1.45197923099 0.119458035379 0.0
1.05195719011 0.445124234198 0.0
1.44789759486 -0.444806971962 0.0
1.44271658438 0.454852807872 0.0
1.05719007521 -0.454835665688 0.0
1.13349352525 -0.290652987818 0.0
1.36558048088 0.291702538536 0.0
1.12962229649 -0.0758333064425 0.0
1.05630325029 -0.0340444967352 0.0
1.06202204297 0.113957949465 0.0
1.20529638496 0.00335442618929 0.0
1.28258301676 0.286560731442 0.0
1.23813524523 -0.299668217664 0.0
1.21500093373 0.443398212305 0.0
1.28482414874 -0.443222762021 0.0
1.28925814255 -0.12208940907 0.0
1.29453980512 0.113864604428 0.0
1.23470305591 -0.0558747374734 0.0
1.29665738635 0.0278729843947 0.0
1.23591427359 0.203685483378 0.0
1.43552255959 -0.20227412904 0.0
1.43809437519 0.200992034904 0.0
1.06579284091 0.200566219197 0.0
1.06610218124 -0.200831510884 0.0
1.19662899195 -0.157984971644 0.0
1.10255782552 -0.108977112342 0.0
1.3819834176 0.117649027247 0.0
1.13072917424 0.398772079939 0.0
1.37054719787 -0.396158505774 0.0
1.37200722158 0.38604954238 0.0
1.12794777903 -0.386157982638 0.0
1.22914898384 0.0398288297566 0.0
1.18795802138 0.155230145352 0.0
1.38103156262 -0.124734225169 0.0
1.09829920366 0.123038871431 0.0
1.46524096701 -0.406324237671 0.0
1.46352988942 0.408108524321 0.0
1.33254645948 0.23532377057 0.0
1.15986997259 -0.23301222953 0.0
1.03474739965 0.406519050532 0.0
1.03647974811 -0.408089239833 0.0
1.11067814296 0.356752272244 0.0
1.09953491366 -0.34824378021 0.0
1.39401256991 -0.355117354073 0.0
1.40032465098 0.348173139258 0.0
1.20850124845 -0.388373392656 0.0
1.29190813865 0.388063953784 0.0
1.45209250383 -0.0614194570979 0.0
1.04265046505 0.0594118221523 0.0
1.37799741804 0.0455645686156 0.0
1.09445595674 -0.0198738020418 0.0
1.17125844885 0.325116891687 0.0
1.33710428553 -0.320830360612 0.0
1.4624446755 -0.29359594334 0.0
1.4638413105 0.294187977748 0.0
1.03816669608 0.293379666522 0.0
1.03612100234 -0.294176084481 0.0
1.2091440694 -0.466951679373 0.0
1.29087446186 0.466944220595 0.0
1.23959008404 0.341851957953 0.0
1.26190497426 -0.343480632997 0.0
1.4047446195 -0.458111849818 0.0
1.09525772175 0.458334630287 0.0
1.41029702171 0.463260056634 0.0
1.08954036062 -0.463322806891 0.0
1.28993531187 0.240945225169 0.0
1.04175466782 -0.0732036934832 0.0
1.39944797023 -0.0487300383312 0.0
1.39950508982 -0.210161935852 0.0
1.39852673716 0.207054609176 0.0
1.10967701303 0.0337867047974 0.0
1.45716441829 0.0758526353652 0.0
1.14394921446 -0.0306616252908 0.0
1.10172477151 0.206057220809 0.0
1.1029066878 -0.208913042347 0.0
1.21164378668 0.229120637177 0.0
1.3110472596 -0.158283139216 0.0
1.32112049401 0.157554792654 0.0
1.287920736 -0.225872685568 0.0
1.27839632197 -0.264708682517 0.0
1.20058650144 0.27213624627 0.0
1.31659035886 0.0863875151429 0.0
1.25027168027 0.127815916871 0.0
1.16454668066 0.460564230523 0.0
1.33541506854 -0.460253136315 0.0
1.25480903132 -0.112515003379 0.0
1.45999924415 -0.160321852891 0.0
1.45653641109 0.162807970737 0.0
1.16807283199 0.232375118295 0.0
1.03996411692 0.159828491129 0.0
1.04072097507 -0.159058718342 0.0
1.33093675386 -0.235015681682 0.0
1.16056004746 0.0169619458001 0.0
1.28079455007 -0.414563904505 0.0
1.21734283008 0.414992928036 0.0
1.39836847539 -0.272979658291 0.0
1.39578006554 0.271301628471 0.0
1.17048351029 -0.330959924914 0.0
1.33087329731 0.332618947426 0.0
1.10418840357 0.270884556794 0.0
1.10334697641 -0.271164841297 0.0
1.26996211591 -0.0412463897948 0.0
1.26749303693 -0.18735827747 0.0
1.38019844618 0.0829053859178 0.0
1.32960136028 0.0163062849175 0.0
1.45140454597 -0.327887106132 0.0
1.46018291855 0.331898797971 0.0
1.04967704478 0.327841846937 0.0
1.0397823079 -0.33204809379 0.0
1.16749810008 0.0934352038157 0.0
1.17175668492 -0.0889959529311 0.0
1.41989786956 0.00693229544923 0.0
1.34086494758 0.37824794073 0.0
1.15942847913 -0.378088761903 0.0
1.32532599437 0.462501161616 0.0
1.17467541402 -0.462525580015 0.0
1.36012406178 0.263953273497 0.0
1.1373482606 -0.263048997813 0.0
1.33103671282 -0.378591293125 0.0
1.16628443367 0.39121079839 0.0
1.34588567976 -0.0278847760449 0.0
1.15512343041 -0.153445896917 0.0
1.12201540293 -0.146000433537 0.0
1.36317496443 -0.268627564074 0.0
1.13520848119 0.266606568075 0.0
1.40517135465 -0.378587984837 0.0
1.40420011701 0.382922322662 0.0
1.09650058794 0.379629873605 0.0
1.09571348963 -0.383057509749 0.0
1.32290097714 -0.0694068241607 0.0
1.15743722198 0.164682564134 0.0
1.36220784733 0.208242689087 0.0
1.37984739992 -0.0884752930791 0.0
1.23120170294 -0.41225264527 0.0
1.26862372054 0.411985471565 0.0
1.30755745107 0.261085064476 0.0
1.20754763388 -0.26984300475 0.0
1.11606021115 0.147399138169 0.0
1.46030206794 0.0049433335912 0.0
1.03189068071 -0.00541052754368 0.0
1.45676213801 -0.109445780294 0.0
1.03071485132 0.095254513415 0.0
1.28743980881 0.0021268982101 0.0
1.20059109829 -0.303302486421 0.0
1.30684829575 0.311117318092 0.0
1.26360221826 0.0368263637873 0.0
1.1479226984 0.0474071991381 0.0
1.38649974841 0.148894197046 0.0
1.22744957477 0.0835706156781 0.0
1.25987502501 -0.466672410558 0.0
1.24012446974 0.46667309795 0.0
1.08985375143 0.0106281740844 0.0
1.26165936637 0.205585983621 0.0
1.20252831945 -0.0722970203987 0.0
1.13222009023 -0.217580923104 0.0
1.22830714272 0.176537323822 0.0
1.38536946643 -0.147800245664 0.0
1.47106205379 -0.220422839943 0.0
[...]
POINT_DATA 479
SCALARS Theta-$Re$ double
LOOKUP_TABLE default
0.831745502811 
0.83172431362 
0.331709088828 
0.331550553174 
0.831733215468 
0.831743986554 
0.831770142932 
0.831829913285 
0.831755552883 
0.83174980239 
0.831734677984 
0.831708746181 
0.831773201773 
0.83173586841 
0.831769218549 
0.831752107482 
0.831734138745 
0.831736033658 
0.831775881374 
0.831736001803 
0.831780449207 
0.831710230942 
0.831735206849 
0.831747762296 
0.831753071617 
0.831764773192 
0.831742591639 
0.831747600352 
0.831825467457 
0.833120157977 
0.828025269393 
0.816837300369 
0.799712875045 
0.776843300728 
0.748375450517 
0.714461813639 
0.675191634002 
0.630714951967 
0.581130884194 
0.526550316698 
0.466956613246 
0.403114809941 
0.331390056586 
0.331563503095 
0.332076511336 
0.332089179216 
0.331832689829 
0.33158797741 
0.331386661649 
0.330863575265 
0.331885723663 
0.331574460897 
0.332069878677 
0.331847900066 
0.331712822271 
0.331732356382 
0.331916903142 
0.331315430249 
0.331843106816 
0.330991078521 
0.331408304773 
0.331582384104 
0.331706150792 
0.331862048685 
0.33153780757 
0.331929798156 
0.332001238941 
0.40314869079 
0.466960965593 
0.526574880099 
0.581131654179 
0.630715917471 
0.675187556948 
0.714461880981 
0.748377388243 
0.776840347491 
0.799707139879 
0.816812760062 
0.828001591793 
0.833123627745 
0.727898508276 
0.70696345028 
0.710005504775 
0.597506716561 
0.605242776362 
0.795798119322 
0.78894600862 
0.579297876737 
0.794523670707 
0.583748996794 
0.79862633221 
0.559781753524 
0.807190002973 
0.549032767433 
0.55427065057 
0.804907398872 
0.810193601266 
0.709812965815 
0.720408814965 
0.704134674401 
0.703152232322 
0.82570731104 
0.482163195891 
0.491369507188 
0.82428983937 
0.821939269077 
0.484773181119 
0.503413837887 
0.823403085717 
0.486602715005 
0.489761993026 
0.822627215249 
0.824089154748 
0.678475002036 
0.688497578624 
0.769415730521 
0.491387420365 
0.484867209814 
0.823214030578 
0.825438264916 
0.63383108481 
0.775803954889 
0.628618742897 
0.777913002693 
0.765015227796 
0.655525164272 
0.754438829909 
0.762369656449 
0.777579032112 
0.66912032916 
0.655003230283 
0.78329224024 
0.620645296079 
0.604563250828 
0.784267845955 
0.746270886979 
0.674804853872 
0.644590199973 
0.476163940055 
0.828977198469 
0.457358269789 
0.457990176231 
0.582921188119 
0.828981991138 
0.829057785397 
0.461678497998 
0.457021858589 
0.828468116596 
0.829243627799 
0.747103778293 
0.731357870619 
0.696293860927 
0.762317447869 
0.578550388332 
0.560980217481 
0.8076783594 
0.798555119502 
0.563799789965 
0.80589111569 
0.559815377224 
0.804092326298 
0.804000804355 
0.831541677994 
0.425306749737 
0.831560251838 
0.432711929027 
0.442192044471 
0.830802009263 
0.804770467378 
0.568694849389 
0.806733302258 
0.830926274515 
0.829949008694 
0.756065534009 
0.678842214994 
0.72632700032 
0.74776013079 
0.676244562913 
0.671023794693 
0.664699779712 
0.72964047496 
0.66211313589 
0.728483677607 
0.454765063925 
0.450204046239 
0.829237072056 
0.829171445449 
0.76314741792 
0.818598921087 
0.543699466754 
0.806181781738 
0.561247019772 
0.559022779546 
0.807574432383 
0.734921132552 
0.76989972533 
0.545181074655 
0.820159239054 
0.401361592437 
0.404634809099 
0.615830408273 
0.789526433949 
0.833174780378 
0.833087377043 
0.815400494194 
0.819712405584 
0.524711332635 
0.51451149602 
0.75336475297 
0.667849032457 
0.425461354843 
0.832628069434 
0.549889917018 
0.821499487759 
0.781992657575 
0.60958279562 
0.406635137079 
0.403979414899 
0.832973700457 
0.833102173916 
0.752816465349 
0.669084611019 
0.724897016552 
0.701952503613 
0.507336919752 
0.821230749565 
0.498108282406 
0.823086987341 
0.670206928314 
0.832705308452 
0.515962360055 
0.515850455094 
0.517448238145 
0.815814816178 
0.416247164508 
0.799095131394 
0.818918526098 
0.81846455205 
0.750686503974 
0.644186410534 
0.631127998866 
0.67259880614 
0.683664293853 
0.759956566406 
0.637055953345 
0.714168512702 
0.786496756413 
0.611902574308 
0.709473704338 
0.410979666197 
0.417305004737 
0.784156555055 
0.832854508436 
0.83281362279 
0.618023631385 
0.789082618583 
0.680913802508 
0.74568921822 
0.517706118753 
0.521889652656 
0.782516062062 
0.618094203014 
0.817976841172 
0.818303160647 
0.693155025145 
0.695889189154 
0.546477461702 
0.619816850999 
0.426731842377 
0.410796351701 
0.831899004307 
0.832864934712 
0.784539289341 
0.781643626452 
0.481851039073 
0.604364700791 
0.789810861515 
0.625548786284 
0.779610249361 
0.576775662099 
0.802740069288 
0.617892654038 
0.785353843616 
0.597300161624 
0.792505850588 
0.81040960179 
0.572274016884 
0.803861827575 
0.50658535633 
0.508213812081 
0.820783552467 
0.821060953746 
0.628778115725 
0.791059384925 
0.573703133796 
0.547009150314 
0.732984797832 
0.694637935952 
0.648602985762 
0.754172295893 
0.813099825715 
0.410546128807 
0.833299767097 
0.416806990884 
0.83334608444 
0.673164198121 
0.759954538156 
0.649493846073 
0.700121881913 
0.796816457205 
0.536632176087 
0.736506132066 
0.704130135056 
0.724375399447 
0.823001104221 
0.70222098353 
0.758356610208 
0.805418317614 
0.735697504525 
0.538414134261 
0.3903440934 
0.390032778591 
0.833382075105 
0.833378690085 
0.758230079491 
0.66133470014 
0.769233718765 
0.642236656547 
0.735379898541 
0.411623470493 
0.743332013246 
0.833166987426 
0.713668630396 
0.564153143305 
0.425364984785 
0.401196051937 
0.832062250497 
0.833182552828 
0.735649504522 
0.714545106713 
0.714710954416 
0.805319497839 
0.512129993946 
0.515237074941 
0.542147811117 
0.819193308712 
0.819733559494 
0.717169830577 
0.730766979201 
0.642034932836 
0.568801559094 
0.804227759931 
0.570142941299 
0.803794112439 
0.648674010274 
0.767265120952 
0.779619379758 
0.833252081992 
0.772221624887 
0.746265905299 
0.813079395381 
0.833326054119 
0.394606658782 
0.832579553131 
0.417499751309 
0.392475639426 
0.833359710164 
0.383640460443 
0.775201971848 
0.632159893902 
0.528992313114 
0.449596789287 
0.830046495416 
0.812020535995 
0.67225231064 
0.663784227925 
0.492609905995 
0.463170373811 
0.833264686215 
0.822900263298 
0.828525705659 
0.386435864832 
0.398481749018 
0.397836314265 
0.697938930204 
0.729984396924 
0.833231532077 
0.833248520793 
0.794737542616 
0.593605567592 
0.80604021363 
0.563626368782 
0.743409111554 
0.692142282801 
0.481044057357 
0.776083279237 
0.833269618489 
0.802673042473 
0.725827808057 
0.70255312024 
0.827086170954 
0.807894570909 
0.374522868802 
0.484415617084 
0.558115527509 
0.474216679854 
0.827536539198 
0.485063864828 
0.825667604729 
0.827656745028 
0.748607654639 
0.674876252543 
0.815574301903 
0.530896478294 
0.833263403348 
0.484626146634 
0.784708279303 
0.610417341887 
0.412603571983 
0.80552781289 
0.601006552067 
0.77354388357 
0.628028650301 
0.814933272687 
0.467809974249 
0.467385008848 
0.827474463743 
0.827998836345 
0.612469780156 
0.526545530584 
0.592608104329 
0.577795168406 
0.525131771822 
0.815484318053 
0.78671260074 
0.817266542383 
0.814807029019 
0.704319092201 
0.72689399837 
0.462790734224 
0.831392417564 
0.528157089232 
0.763898737506 
0.666156118279 
0.766226736789 
0.649317422008 
0.661673980337 
0.758277361031 
0.816212032623 
0.536007130024 
0.45468207347 
0.421430851658 
0.814630548898 
0.530237697133 
0.829497971227 
0.832333447855 
0.830126482428 
0.448838984823 
0.828913331654 
0.459922315453 
0.806009695195 
0.808820629892 
0.556238198799 
0.555071823707 
0.378012407198 
0.378981274942 
0.770703649311 
0.833433075049 
0.83343251887 
0.732909912681 
0.692716637053 
0.830144310228 
0.510516305798 
0.755153108998 
0.828008014597 
0.825165246657 
0.795653613014 
0.591199968251 
0.79057238844 
SCALARS Theta-$\epsilon_1$ double
LOOKUP_TABLE default
3.93430964243 
3.93431537026 
2.24614285441 
2.2754870572 
3.93425901146 
3.93430645894 
3.93444965358 
3.93445270827 
3.93436864696 
3.93429021406 
3.93422705015 
3.93405181027 
3.93431888558 
3.93424591486 
3.93426893947 
3.93429716166 
3.93419542872 
3.93419023456 
3.93436489948 
3.93420269749 
3.93437665869 
3.93404825851 
3.93421820938 
3.93426903987 
3.93430461701 
3.93435359092 
3.93425968195 
3.93437864027 
3.93439935368 
3.95570702748 
3.97556804572 
3.99495212514 
4.01368471723 
4.03184781314 
4.04946495793 
4.06656775758 
4.08317555108 
4.09929717384 
4.11497993008 
4.13006281897 
4.14531819796 
4.15563794705 
2.27922884425 
2.24926831072 
2.1938537889 
2.24475199514 
2.2283008365 
2.25209666197 
2.27808942152 
2.32913892935 
2.26222966132 
2.22976968512 
2.24467146444 
2.23534884917 
2.25412326243 
2.25015218007 
2.25789675935 
2.25483622025 
2.26509857901 
2.31843941921 
2.27320291642 
2.25105994728 
2.24132645637 
2.23630982695 
2.26032109054 
2.21550806601 
2.25022200885 
4.14995310821 
4.14687260742 
4.13085423464 
4.1155318357 
4.09963236657 
4.08340089531 
4.0667201552 
4.04957497553 
4.03193029132 
4.01374997092 
3.9950026568 
3.975616718 
3.95573902488 
4.06015587823 
4.06992066564 
4.06856432253 
4.11014973867 
4.1076780677 
4.01715395435 
4.02285323596 
4.11588872035 
4.01831320134 
4.11429629412 
4.01467803573 
4.12094978888 
4.00630282018 
4.12417016276 
4.12268831375 
4.00866376497 
4.00305471775 
4.06871458108 
4.06385847176 
4.07117854362 
4.07159107672 
3.98062995036 
4.14210244634 
4.13997996591 
3.9833450873 
3.9873891401 
4.1410311294 
4.13645627497 
3.98492943676 
4.14016563531 
4.14025498562 
3.98627301212 
3.9837418867 
4.08189495699 
4.07781331451 
4.03681308774 
4.14035970475 
4.14142261625 
3.98530374514 
3.9811535969 
4.09833904933 
4.03263577196 
4.10024234305 
4.03110819005 
4.03962097619 
4.09068979048 
4.04604242629 
4.04126118696 
4.03131081387 
4.08549485907 
4.09074969396 
4.02720961738 
4.10262221775 
4.10790397233 
4.02647006066 
4.05064423555 
4.08335502687 
4.09453630159 
4.14442423691 
3.97307457189 
4.14834451125 
4.14798292016 
4.11469566077 
3.97308157729 
3.97287867884 
4.1530002084 
4.14809506749 
3.97457651789 
3.97238567919 
4.05014471525 
4.05845440767 
4.07474549172 
4.04129533549 
4.11570757285 
4.12092935998 
4.00578428902 
4.01471641143 
4.1201482676 
4.00774528935 
4.12145429897 
4.00950465302 
4.00955732027 
3.96481239257 
4.15796527743 
3.96477482634 
4.15329913831 
4.15654484569 
3.9677094446 
4.00882237292 
4.11862091862 
4.00678403358 
3.96714365745 
3.97033101109 
4.04504672809 
4.08171148307 
4.06095280934 
4.04990931668 
4.08279333302 
4.08480542293 
4.08718859982 
4.05927918867 
4.08813993064 
4.05984134156 
4.14745838639 
4.14913005053 
3.97242789916 
3.97259418428 
4.04079500809 
3.9924805692 
4.12586871554 
4.00743276633 
4.12124382738 
4.12164871079 
4.005934557 
4.056606486 
4.03649355942 
4.1255376204 
3.99019181034 
4.15342177391 
4.15058114688 
4.10417702215 
4.02239105755 
3.9551897992 
3.95616246565 
3.9968589506 
3.99087376935 
4.13152761763 
4.13346500851 
4.04665950108 
4.08612768992 
4.15507170662 
3.95957874476 
4.12366617807 
3.98812538077 
4.02818862326 
4.106446179 
4.15136508652 
4.15528223898 
3.95712511009 
3.9559299889 
4.04696316802 
4.08576653018 
4.06166025446 
4.07220348951 
4.1348115712 
3.98863749975 
4.13760952748 
3.98548950343 
4.08505886551 
3.95910409466 
4.13328449768 
4.13276446303 
4.1324736494 
3.99627078715 
4.15598791186 
4.01421963834 
3.99204054496 
3.99267036026 
4.04814930311 
4.09466343257 
4.09917525643 
4.08416403995 
4.07981791921 
4.04275519862 
4.09714458667 
4.06665437433 
4.02485314161 
4.10552035216 
4.06881378827 
4.15504425255 
4.15273277296 
4.02654639408 
3.95808751652 
3.95850221561 
4.10349791752 
4.02272532182 
4.08096394678 
4.0510301186 
4.13235798188 
4.13112898563 
4.02778334343 
4.10353365878 
3.9933744089 
3.99291635506 
4.07590062239 
4.07473365149 
4.12489249712 
4.10298225514 
4.15385394404 
4.15362583691 
3.96357183577 
3.9580181743 
4.02624129131 
4.02839719609 
4.14244067236 
4.10805557241 
4.02218510196 
4.10134857743 
4.02989404159 
4.11625494589 
4.01082234201 
4.10376220495 
4.02570947921 
4.11022709043 
4.01996329908 
4.00279949195 
4.11771297861 
4.0097149529 
4.13537046352 
4.13480382413 
3.98927876913 
3.9888296538 
4.10002638818 
4.02113825726 
4.11717233083 
4.12512976089 
4.0576447575 
4.07541312914 
4.09305190281 
4.04617372708 
3.99965750515 
4.15351378218 
3.95350725631 
4.15801710142 
3.95279203336 
4.08395008063 
4.04277337109 
4.09277469544 
4.07291818942 
4.01626375364 
4.12772255689 
4.0557870775 
4.07121409835 
4.06202076513 
3.98563452482 
4.07199762187 
4.04369556251 
4.00814846502 
4.05619768946 
4.12723124548 
4.15865827297 
4.15885349626 
3.95189045292 
3.95192434927 
4.04389615054 
4.08846888049 
4.03696583302 
4.09543265815 
4.05638023109 
4.15003732267 
4.05219544512 
3.95526797786 
4.06690280881 
4.11985123848 
4.1550987858 
4.15815795869 
3.96278381469 
3.95509405775 
4.05623554117 
4.06653711828 
4.06656966639 
4.00830221235 
4.13363739839 
4.13284665434 
4.12672141649 
3.99162893914 
3.99083696799 
4.06528846983 
4.05871718907 
4.09546501844 
4.11865012766 
4.00942876805 
4.11885581164 
4.00979351492 
4.09304282305 
4.03823359752 
4.02985524198 
3.95422274628 
4.03497406812 
4.05059125647 
3.99966977933 
3.95310715897 
4.15952131178 
3.96008533603 
4.15584463845 
4.1582522957 
3.952456869 
4.16511012744 
4.03301113592 
4.09899992681 
4.13010743023 
4.15121813499 
3.97007266143 
4.00094280435 
4.08429204248 
4.08752063404 
4.13935630089 
4.14638341978 
3.95396671377 
3.98586951854 
3.97431101428 
4.15901050241 
4.15528815692 
4.15564007354 
4.07394196753 
4.05915808324 
3.95452928867 
3.9542844692 
4.01815251529 
4.11131001736 
4.00753766854 
4.12067635308 
4.05222631639 
4.07639489482 
4.14252050344 
4.03233971491 
3.95394535687 
4.01086800506 
4.06118647617 
4.07205941981 
3.97768355432 
4.00557583112 
4.17610604755 
4.1421370594 
4.12164446916 
4.14359286779 
3.97666745603 
4.14178617481 
3.98072256924 
3.97641345204 
4.04934742302 
4.08349104731 
3.9966425835 
4.12918432239 
3.95408464968 
4.14115168705 
4.0261476605 
4.10607151304 
4.15076626105 
4.00802976689 
4.10899243652 
4.03407644993 
4.10018114765 
3.99739722153 
4.14647961955 
4.14600988843 
3.97680575224 
3.97556891366 
4.10532177185 
4.13033077659 
4.11154947441 
4.11608263121 
4.13064292168 
3.99673119958 
4.02459126214 
3.99434728031 
3.99755850142 
4.07111921734 
4.06068467603 
4.15102664458 
3.96545524924 
4.1296907886 
4.04039714622 
4.0867452931 
4.03897842693 
4.09288029115 
4.08843966236 
4.04380489892 
3.99574971828 
4.12750343152 
4.1489527174 
4.15543547755 
3.99779189262 
4.12920912141 
3.9717460313 
3.96141520703 
3.96991459742 
4.14943955387 
3.97330321828 
4.14754804369 
4.00759851855 
4.00458277306 
4.12267458532 
4.12265510956 
4.17360842557 
4.16988680453 
4.03598863962 
3.94813660415 
3.94822641183 
4.0576519087 
4.07612762459 
3.96977456868 
4.13411735873 
4.0455910814 
3.97558560967 
3.98171851051 
4.01730867106 
4.1119532541 
4.02153536437 
SCALARS Theta-$\epsilon_1^2$ double
LOOKUP_TABLE default
1.22853640189 
1.22963607284 
-3.90520106422 
-5.16774403892 
1.22854914016 
1.22864952757 
1.22883629362 
1.22903484704 
1.22925776451 
1.22953058621 
1.22984894508 
1.23016310166 
1.23063310428 
1.23099565264 
1.23136306373 
1.23168161642 
1.2318831781 
1.23201828865 
1.23210193854 
1.23197247372 
1.23185077884 
1.23149443601 
1.23124162081 
1.23092398653 
1.23059994995 
1.23030200317 
1.23000285341 
1.2298318607 
1.22970818334 
1.23628354108 
1.24237384436 
1.24823048903 
1.25378738787 
1.25904920875 
1.26399060396 
1.26856707754 
1.27272428364 
1.27607632531 
1.28045433049 
1.28154028327 
1.3080284997 
1.28090449698 
-4.81053652596 
-1.68048977737 
1.05957876751 
-1.28716978867 
-1.45514137458 
-2.19494852908 
-4.06516466452 
-8.59009212982 
-4.40932572687 
-0.50453357405 
-1.60118003436 
-2.52916382388 
-3.61413733795 
-3.22665398286 
-4.07808039009 
-0.777867168347 
-3.27206776276 
-8.374385011 
-3.37932338067 
-1.99646584908 
-1.79189237748 
-1.74115927566 
-3.19664250452 
-0.840540031957 
-2.15754547864 
1.48325178879 
1.28063123148 
1.30743388913 
1.28273984247 
1.27958239083 
1.27384124303 
1.26883591865 
1.26371366349 
1.25843758632 
1.252963859 
1.24727296364 
1.24133828022 
1.23520362448 
1.27048088373 
1.2711403673 
1.2769795139 
1.29376999901 
1.28061549881 
1.2568946743 
1.26054688804 
1.28560437773 
1.25471934361 
1.2823920707 
1.25505457431 
1.31024247008 
1.25504635557 
1.28914076559 
1.29055385897 
1.25286314678 
1.25281652014 
1.27045686714 
1.26804078649 
1.27661929159 
1.27264765995 
1.24305679137 
1.25448663319 
1.2342111483 
1.2449712206 
1.24904047737 
1.29821754391 
1.30511319023 
1.24730406612 
1.24374591891 
1.2322406537 
1.24672866276 
1.2473654965 
1.28295170597 
1.27730951317 
1.26574347339 
1.2453780595 
1.28712139279 
1.24499047395 
1.24514332918 
1.27746464006 
1.25875151425 
1.27641751543 
1.25924046235 
1.26583958129 
1.27866253545 
1.26331275735 
1.26336774147 
1.26235334304 
1.27993519944 
1.27753294858 
1.25979548715 
1.28059044324 
1.28661969644 
1.25795670521 
1.26604757763 
1.27399864227 
1.2890441543 
1.28096594196 
1.24409604932 
1.25711550186 
1.28738351615 
1.29805963672 
1.2418065564 
1.24323521348 
1.48596152497 
1.30974204961 
1.24141942436 
1.24188656106 
1.27029598098 
1.26670351744 
1.27108034185 
1.2646781899 
1.28808141159 
1.28228330122 
1.25269945052 
1.25719092913 
1.27954019832 
1.25121348123 
1.28798373636 
1.25253306664 
1.25523931084 
1.24164573002 
1.41565185968 
1.2380568718 
1.33187105152 
1.46564262104 
1.24004134492 
1.25397602952 
1.2849815449 
1.25544367138 
1.24244381961 
1.24233162009 
1.2682321982 
1.27423367116 
1.26986475842 
1.26383674622 
1.27312380605 
1.28287997146 
1.27818896267 
1.27404635894 
1.28375064821 
1.26869929491 
1.45893075097 
1.43544826248 
1.24204962901 
1.24356554101 
1.2661855864 
1.25060858212 
1.28920876286 
1.25125215646 
1.28933488894 
1.28364046051 
1.25204737549 
1.27151645908 
1.26243237824 
1.30134482851 
1.24847865483 
1.19400373716 
1.38973425047 
1.28158504157 
1.2590069879 
1.23520306137 
1.23668251281 
1.24824863502 
1.24780942451 
1.30332173982 
1.28501565011 
1.26411717336 
1.27444034096 
1.5571161419 
1.2394727284 
1.30402126063 
1.24917884839 
1.25794326334 
1.28358390055 
1.3690758618 
1.24843645948 
1.23645147121 
1.23747498562 
1.26339017035 
1.27464004031 
1.2677359175 
1.27246858265 
1.27304995351 
1.24536397604 
1.27019082476 
1.24543333417 
1.2758350383 
1.23991583705 
1.33058378365 
1.2877866137 
1.29516578194 
1.25144582826 
1.00287197676 
1.25788546584 
1.24807152759 
1.24986251757 
1.26490008876 
1.28467434796 
1.28044364894 
1.2784619315 
1.27623764456 
1.26280013359 
1.28248917496 
1.2720465387 
1.25633796465 
1.27790319854 
1.27699044787 
1.24602598844 
1.82772644305 
1.2583468668 
1.23800559836 
1.23941562587 
1.28341740956 
1.26035959873 
1.27332540407 
1.26422431547 
1.29414811257 
1.28957765162 
1.25927607777 
1.27981199669 
1.24782742559 
1.24925244593 
1.28061373376 
1.27670456786 
1.28754300927 
1.28899037369 
1.48487228393 
1.30617886078 
1.23820242895 
1.23779457426 
1.2603154832 
1.26274339494 
1.29199219492 
1.27961057902 
1.2570082807 
1.27829588255 
1.25857631153 
1.28535197791 
1.25495095075 
1.28104519033 
1.25679161277 
1.29706644866 
1.25930976602 
1.25374223842 
1.28476022019 
1.25286549451 
1.27219875217 
1.28540408437 
1.24581275294 
1.24688196269 
1.29194633224 
1.25757127181 
1.28773473379 
1.30874014498 
1.26692827442 
1.27130482465 
1.27809065685 
1.26586081983 
1.25113939715 
1.43555695221 
1.23798985125 
1.24841924576 
1.23700447769 
1.28309708756 
1.2642557147 
1.27713909334 
1.2772780128 
1.25781524055 
1.29878970128 
1.26999061939 
1.26990906722 
1.26742362858 
1.24818983791 
1.27227728988 
1.26821237651 
1.25469122878 
1.26800680102 
1.30125686043 
1.12324815258 
1.10343809104 
1.23547116996 
1.23688946674 
1.26202689537 
1.27412427037 
1.26165351662 
1.27723871881 
1.27073958914 
1.5384199554 
1.27120127389 
1.23835573115 
1.27355659686 
1.29083929014 
1.31560807252 
1.12502129169 
1.23766757828 
1.23654343526 
1.27202381995 