# vtk DataFile Version 4.1
Exported OTI solution
ASCII
DATASET UNSTRUCTURED_GRID
POINTS 3016 double
0.0 0.0 0.0
1.0 0.0 0.0
1.0 1.0 0.0
0.0 1.0 0.0
0.0 2.0 0.0
-1.0 2.0 0.0
-1.0 1.0 0.0
-2.0 1.0 0.0
-2.0 0.0 0.0
-1.0 0.0 0.0
-1.0 -1.0 0.0
0.0 -1.0 0.0
-0.141421 -0.141421 0.0
0.01118566031155032 0.0 0.0
0.02664589609791281 0.0 0.0
0.04801422601421267 0.0 0.0
0.07754841755229674 0.0 0.0
0.1183690293665235 0.0 0.0
0.1747891493500147 0.0 0.0
0.2527700926766767 0.0 0.0
0.3605512825127535 0.0 0.0
0.5095207940909101 0.0 0.0
0.7154187114289909 0.0 0.0
1.0 0.3333333333325025 0.0
1.0 0.6666666666657889 0.0
0.6666666666675911 1.0 0.0
0.3333333333347203 1.0 0.0
0.0 1.333333333333333 0.0
0.0 1.666666666666667 0.0
-0.3333333333325025 2.0 0.0
-0.6666666666657889 2.0 0.0
-1.0 1.666666666666667 0.0
-1.0 1.333333333333333 0.0
-1.333333333333333 1.0 0.0
-1.666666666666667 1.0 0.0
-2.0 0.6666666666675911 0.0
-2.0 0.3333333333347203 0.0
-1.666666666666667 0.0 0.0
-1.333333333333333 0.0 0.0
-1.0 -0.3333333333325025 0.0
-1.0 -0.6666666666657889 0.0
-0.6666666666675911 -1.0 0.0
-0.3333333333347203 -1.0 0.0
0.0 -0.7154187114302499 0.0
0.0 -0.5095207940941022 0.0
0.0 -0.3605512825150344 0.0
0.0 -0.2527700926781983 0.0
0.0 -0.1747891493510011 0.0
0.0 -0.1183690293671426 0.0
0.0 -0.07754841755270425 0.0
0.0 -0.04801422601446237 0.0
0.0 -0.02664589609804535 0.0
0.0 -0.01118566031160539 0.0
-0.006564772712335525 0.006558652233883994 0.0
-0.01286647933908519 0.01285565893774948 0.0
-0.01898179543788848 0.01896832699063132 0.0
-0.02492197009665359 0.02490767855028192 0.0
-0.03069253972800756 0.03067820448252967 0.0
-0.03629873045409718 0.03628432106266005 0.0
-0.04174525675159022 0.04173068119887757 0.0
-0.04703658292568453 0.0470219163089066 0.0
-0.05217707959507539 0.0521624989744988 0.0
-0.05717107678520941 0.05715668723888475 0.0
-0.06202279696048033 0.06200860227461439 0.0
-0.06673633158121954 0.0667222603172178 0.0
-0.07131561288604296 0.07130159645759794 0.0
-0.0757644535334589 0.07575045258061254 0.0
-0.08008655903267757 0.08007255903267757 0.0
-0.08428553566031098 0.08427153566031098 0.0
-0.08836489030905792 0.0883508903090579 0.0
-0.09232803216008016 0.09231403216008016 0.0
-0.09617827094592964 0.09616427094592965 0.0
-0.09991882105565629 0.0999048210556563 0.0
-0.1035528065028216 0.1035388065028216 0.0
-0.1070832639790578 0.1070692639790577 0.0
-0.1105131427271213 0.1104991428078273 0.0
-0.1138452922659897 0.1138313264283606 0.0
-0.1170824419809789 0.1170686555307009 0.0
-0.120227243388535 0.1202138865363993 0.0
-0.1232822814143984 0.1232696904286878 0.0
-0.1262504044287071 0.1262383220261495 0.0
-0.1292136207130616 0.129040323278115 0.0
-0.1323536855226416 0.1314637491719118 0.0
-0.1356912141454273 0.1334232085783253 0.0
-0.1391540188867968 0.1349617097253034 0.0
-0.1426741621619283 0.1361660000316438 0.0
-0.1462100703166717 0.1371158929889639 0.0
-0.1497395190280119 0.1378721399587232 0.0
-0.1532512264425116 0.1384786646925824 0.0
-0.1567397461044099 0.1389667771232571 0.0
-0.1602041747069611 0.1393440056368671 0.0
-0.1636449517598903 0.1395946009479579 0.0
-0.1670598970894496 0.1397023365967445 0.0
-0.1704441419243506 0.1396507234493139 0.0
-0.1737898730005157 0.139422357581367 0.0
-0.177085808000333 0.138998869775887 0.0
-0.1803165403006862 0.1383614285034616 0.0
-0.1834619515220679 0.137491902902534 0.0
-0.1864970102666536 0.1363748018179202 0.0
-0.1893924213047743 0.1349999335788595 0.0
-0.1921165791066632 0.1333653452685341 0.0
-0.1946389350960855 0.1314796163659458 0.0
-0.1969341663806601 0.1293623816727106 0.0
-0.1989858322005226 0.1270424582316911 0.0
-0.2007881786024022 0.1245540452069753 0.0
-0.2023456010930176 0.1219323637386883 0.0
-0.2036703549924902 0.1192101146299041 0.0
-0.2047796200795072 0.1164154137715295 0.0
-0.2056928290575331 0.1135711329046033 0.0
-0.2064297067460263 0.1106951544779629 0.0
-0.2070090473709946 0.1078010837229906 0.0
-0.2074480812302719 0.1048990699114691 0.0
-0.2077622333008979 0.1019965794372544 0.0
-0.2079651166594393 0.09909904504033651 0.0
-0.2080686495811349 0.09621036731236525 0.0
-0.2080832529001344 0.09333331745123367 0.0
-0.2080195665756593 0.09046978646606689 0.0
-0.2078886992816258 0.087620879010325 0.0
-0.2076997479812321 0.0847871330766991 0.0
-0.2074600970445854 0.08196873180063177 0.0
-0.2071758217133741 0.07916564725278956 0.0
-0.2068519800751476 0.07637771782366401 0.0
-0.2064928285588654 0.0736046999277133 0.0
-0.2061019846680574 0.07084630942910634 0.0
-0.2056825483550736 0.06810223098900477 0.0
-0.2052371989411403 0.06537214670244929 0.0
-0.2047682677205066 0.06265573499328266 0.0
-0.2042777963933603 0.05995267706653704 0.0
-0.2037675847166314 0.05726266622252809 0.0
-0.2032392272962201 0.05458540545759291 0.0
-0.2026941448990579 0.05192061259724917 0.0
-0.2021336078704907 0.04926801290145643 0.0
-0.2015587593860275 0.04662735163124191 0.0
-0.2009706298305715 0.04399838046470964 0.0
-0.2003701534023249 0.04138086743152872 0.0
-0.1997581793587566 0.03877459222435981 0.0
-0.1991354821136725 0.03617934492982675 0.0
-0.1985027707193893 0.03359492846961493 0.0
-0.1978606955451429 0.03102115454776987 0.0
-0.1972098555586769 0.028457846420052 0.0
-0.196550803345 0.02590483600541114 0.0
-0.1958840501267679 0.02336196403687681 0.0
-0.1952100703782511 0.02082908097421339 0.0
-0.1945293051399605 0.01830604498694672 0.0
-0.193842164875714 0.01579272006461876 0.0
-0.193149033625447 0.01328898029118897 0.0
-0.1924502702673637 0.01079470472460923 0.0
-0.191746211477361 0.008309779591938555 0.0
-0.1910371735794291 0.005834097342435139 0.0
-0.1903234543083735 0.003367556200204324 0.0
-0.1896053347189808 0.0009100608813035668 0.0
-0.1888830800060164 -0.001538479849894018 0.0
-0.1881569415276385 -0.003978150983760883 0.0
-0.1874271575796688 -0.006409032907842091 0.0
-0.1866939545440891 -0.008831201366064844 0.0
-0.185957548045654 -0.01124472707257966 0.0
-0.1852181435754425 -0.01364967678792369 0.0
-0.1844759375997116 -0.01604611253762437 0.0
-0.1837311180534054 -0.01843409261240275 0.0
-0.1829838652666178 -0.02081367096084173 0.0
-0.182234352511981 -0.02318489763326391 0.0
-0.1814827465908058 -0.02554781893866416 0.0
-0.1807292084522238 -0.02790247736368082 0.0
-0.1799738937400197 -0.03024891160568359 0.0
-0.1792169532148014 -0.03258715689095276 0.0
-0.178458533306874 -0.03491724479832668 0.0
-0.177698776593196 -0.03723920324968053 0.0
-0.1769378221953276 -0.03955305668224824 0.0
-0.1761758062340274 -0.04185882599888861 0.0
-0.1754128622684779 -0.04415652853207441 0.0
-0.1746491216699262 -0.0464461781830347 0.0
-0.1738847141677351 -0.04872778503408041 0.0
-0.1731197681635417 -0.05100135566200106 0.0
-0.1723544111557458 -0.0532668931349204 0.0
-0.1715887704131558 -0.05552439630910188 0.0
-0.1708229731455394 -0.05777386066706586 0.0
-0.1700571472924038 -0.06001527740105475 0.0
-0.1692914218604328 -0.06224863392404978 0.0
-0.1685259278004047 -0.06447391292600778 0.0
-0.1677607983139604 -0.06669109325304398 0.0
-0.1669961699157144 -0.06890014878731344 0.0
-0.1662321831397836 -0.07110104861696971 0.0
-0.1654689834540319 -0.07329375691780643 0.0
-0.164706722555675 -0.07547823213751455 0.0
-0.1639455593418604 -0.07765442761649029 0.0
-0.1631856619304721 -0.07982228983967096 0.0
-0.1624272090901761 -0.08198175920221872 0.0
-0.1616703925634348 -0.08413276928097312 0.0
-0.1609154201357504 -0.0862752453739196 0.0
-0.160162518474032 -0.08840910552902302 0.0
-0.1594119382032146 -0.09053425768255684 0.0
-0.1586639584647621 -0.09265060162611094 0.0
-0.1579188944566521 -0.09475802536091603 0.0
-0.1571770142512789 -0.09685637417139764 0.0
-0.1564384254632788 -0.09894541347115292 0.0
-0.1557032192533227 -0.1010248854195169 0.0
-0.1549714951927906 -0.103094508386807 0.0
-0.154243359549717 -0.1051539818023894 0.0
-0.1535189288570749 -0.1072029760620721 0.0
-0.1527983297685855 -0.1092411329359373 0.0
-0.1520817005566897 -0.1112680613314477 0.0
-0.1513691944347373 -0.1132833278969003 0.0
-0.1506609806624386 -0.1152864538947453 0.0
-0.1499572482427705 -0.1172769047451829 0.0
-0.1492582100450115 -0.1192540783644885 0.0
-0.1485641073556384 -0.1212172922931653 0.0
-0.147875217190849 -0.1231657630130588 0.0
-0.1471918624185295 -0.1250985773181827 0.0
-0.1465144223532849 -0.1270146623475219 0.0
-0.1458433551971826 -0.1289127221131848 0.0
-0.1451792241941861 -0.1307911635246803 0.0
-0.1445227450987616 -0.1326479621277606 0.0
-0.1438748657294744 -0.1344804370934399 0.0
-0.1432369184474232 -0.1362848199449393 0.0
-0.1426109619288803 -0.1380552878811163 0.0
-0.1420007784458242 -0.1397811430482618 0.0
-0.006564772712335525 0.006558652233883994 0.0
-0.02492197009665359 0.02490767855028192 0.0
-0.01286647933908519 0.01285565893774948 0.0
-0.01898179543788848 0.01896832699063132 0.0
-0.03069253972800756 0.03067820448252967 0.0
-0.03629873045409718 0.03628432106266005 0.0
-0.04174525675159022 0.04173068119887757 0.0
-0.04703658292568453 0.0470219163089066 0.0
-0.05217707959507539 0.0521624989744988 0.0
-0.05717107678520941 0.05715668723888475 0.0
-0.06202279696048033 0.06200860227461439 0.0
-0.06673633158121954 0.0667222603172178 0.0
-0.07131561288604296 0.07130159645759794 0.0
-0.0757644535334589 0.07575045258061254 0.0
-0.08008655903267757 0.08007255903267757 0.0
-0.08428553566031098 0.08427153566031098 0.0
-0.08836489030905792 0.0883508903090579 0.0
-0.1262504044287071 0.1262383220261495 0.0
-0.1731197681635417 -0.05100135566200106 0.0
-0.1662321831397836 -0.07110104861696971 0.0
-0.1451792241941861 -0.1307911635246803 0.0
-0.1669961699157144 -0.06890014878731344 0.0
-0.1924502702673637 0.01079470472460923 0.0
-0.2007881786024022 0.1245540452069753 0.0
-0.1989858322005226 0.1270424582316911 0.0
-0.1837311180534054 -0.01843409261240275 0.0
-0.1803165403006862 0.1383614285034616 0.0
-0.177698776593196 -0.03723920324968053 0.0
-0.1609154201357504 -0.0862752453739196 0.0
-0.1958840501267679 0.02336196403687681 0.0
-0.1946389350960855 0.1314796163659458 0.0
-0.1292136207130616 0.129040323278115 0.0
[...]
POINT_DATA 3016
VECTORS u-$Re$ double
7.659314700901317e-06 8.259283166836891e-05 0 
5.766906671738878e-31 9.787027553036787e-05 0 
-1.9766501434511006e-30 9.506100446305023e-05 0 
-1.2133446805545042e-05 9.728261986026097e-05 0 
-3.5310258807920366e-05 0.000143843411716487 0 
-1.804203274894965e-05 0.00012504587247053712 0 
-2.6967757398187754e-06 7.78781518548949e-05 0 
1.7092072527786776e-31 6.048939754425607e-05 0 
1.1690854386812563e-30 6.340800476317367e-05 0 
5.324990689785982e-06 5.377804077436967e-05 0 
-2.093361708877518e-06 7.290796052165806e-30 0 
-1.9884083015547427e-05 3.708988053726042e-30 0 
-5.6436152511183474e-06 2.748761000709402e-05 0 
7.643160265525622e-06 8.303611951868294e-05 0 
7.577725761891095e-06 8.36716029697254e-05 0 
7.430477559500637e-06 8.454922321578682e-05 0 
7.155239656073e-06 8.571946526599271e-05 0 
6.700694802316105e-06 8.721589577915551e-05 0 
6.022351840644443e-06 8.903426020246162e-05 0 
5.094276523053383e-06 9.110977700097075e-05 0 
3.946382154951404e-06 9.329933107908617e-05 0 
2.6650423205958793e-06 9.539341991374403e-05 0 
1.3695986734842675e-06 9.708971129414532e-05 0 
-4.037856037261117e-31 9.789857833817029e-05 0 
-1.2527551142075353e-30 9.6784228655249e-05 0 
-5.096159583477085e-06 9.38593141104275e-05 0 
-8.977767932742172e-06 9.140593124290798e-05 0 
-2.1770312803345295e-05 0.0001147965291253399 0 
-2.8827106852411044e-05 0.00012926097685507463 0 
-2.9578372663443087e-05 0.00013737638957840402 0 
-2.3779925551721057e-05 0.00013110918843983 0 
-1.1985655446144726e-05 0.00011047025000414032 0 
-6.564672331156792e-06 9.58794656440725e-05 0 
-1.1512505496827462e-06 6.33237431774158e-05 0 
2.346238525587588e-07 6.09258213836643e-05 0 
6.871334165422447e-31 6.099427993312694e-05 0 
1.0181034627197546e-30 6.222233407590041e-05 0 
2.8776408107508877e-06 6.384324816770524e-05 0 
4.318526392036737e-06 6.387088494545698e-05 0 
3.944469096725079e-06 3.636242059192901e-05 0 
-3.2075233801596156e-07 1.8952051732386594e-05 0 
-9.084275638092525e-06 6.209145196411714e-30 0 
-1.5283531084390253e-05 5.014964872539419e-30 0 
-1.898536182696676e-05 8.26128915991734e-06 0 
-1.706370188289222e-05 1.3463968739101926e-05 0 
-1.4572899275244467e-05 1.606167902930047e-05 0 
-1.1326222318594823e-05 1.6559971916381654e-05 0 
-7.2912040904230624e-06 1.607609650858819e-05 0 
-3.3041629804713137e-06 1.568767561820602e-05 0 
-1.3892607982029032e-07 1.5556770541744134e-05 0 
2.1893952497510978e-06 1.5519608130463292e-05 0 
3.875942764315527e-06 1.5509059563628427e-05 0 
5.094939902424794e-06 1.55059224848424e-05 0 
7.427369882549479e-06 8.234514406685325e-05 0 
7.2276376949377965e-06 8.210340789998528e-05 0 
7.0476668854010315e-06 8.186152535082897e-05 0 
6.882592338771224e-06 8.161839789079314e-05 0 
6.729236058049602e-06 8.137366556553398e-05 0 
6.5854810663051915e-06 8.112711715544174e-05 0 
6.449634873637422e-06 8.087873302748568e-05 0 
6.320432798678197e-06 8.062845005385528e-05 0 
6.1968632056274195e-06 8.037631153781368e-05 0 
6.078006691055416e-06 8.012228764553154e-05 0 
5.96319554207056e-06 7.986643542860101e-05 0 
5.851804914790922e-06 7.9608782337235e-05 0 
5.7433171998259934e-06 7.93492986157383e-05 0 
5.63727334037275e-06 7.908803309736499e-05 0 
5.533276868321988e-06 7.88249612189517e-05 0 
5.430967071734415e-06 7.856005995381582e-05 0 
5.330023366958706e-06 7.829331873722722e-05 0 
5.230185412111438e-06 7.802466327687668e-05 0 
5.131192139172325e-06 7.775404929663818e-05 0 
5.032835482605961e-06 7.748129522932371e-05 0 
4.93486358332179e-06 7.720637369509567e-05 0 
4.837162600188157e-06 7.692906047920088e-05 0 
4.739688909544458e-06 7.664909915975493e-05 0 
4.64230114983721e-06 7.636632616733817e-05 0 
4.545185386972566e-06 7.608012247510955e-05 0 
4.448783998401803e-06 7.578983711710319e-05 0 
4.353826727653481e-06 7.54948732597066e-05 0 
4.264424148486961e-06 7.519123673780412e-05 0 
4.190200859658928e-06 7.486467360094769e-05 0 
4.138010074811184e-06 7.449736777369233e-05 0 
4.109918664628761e-06 7.408770284753691e-05 0 
4.093245463196115e-06 7.364991186465112e-05 0 
4.08565535636066e-06 7.319079420315995e-05 0 
4.078133197259965e-06 7.271646676717309e-05 0 
4.069206477901879e-06 7.22280915334802e-05 0 
4.055136154254996e-06 7.172586009021148e-05 0 
4.034388371143028e-06 7.120800478032212e-05 0 
4.0051024157063e-06 7.067219399758372e-05 0 
3.969445026826868e-06 7.011652770484085e-05 0 
3.927242677267575e-06 6.953806648428692e-05 0 
3.879578238632255e-06 6.893441488133392e-05 0 
3.824181558918347e-06 6.83036858367458e-05 0 
3.7631372382067516e-06 6.764432997298827e-05 0 
3.6942413217927292e-06 6.695535211188965e-05 0 
3.6180651790350834e-06 6.623733602793143e-05 0 
3.533765473367881e-06 6.54927386908932e-05 0 
3.441968536310084e-06 6.472049977213214e-05 0 
3.345277850694717e-06 6.392949206462419e-05 0 
3.239379881319131e-06 6.312894398435807e-05 0 
3.126913954094607e-06 6.232288408778286e-05 0 
3.011503161540543e-06 6.151970933522755e-05 0 
2.890457762528511e-06 6.072729031128802e-05 0 
2.770235167372784e-06 5.996106777795695e-05 0 
2.644146251420639e-06 5.920879946656138e-05 0 
2.517674205939849e-06 5.848246973718584e-05 0 
2.3917767354218136e-06 5.77809060728763e-05 0 
2.2649543622739903e-06 5.710606830608248e-05 0 
2.1398567813656127e-06 5.645629493876939e-05 0 
2.0153743988359274e-06 5.583120167975494e-05 0 
1.8908844001979382e-06 5.522784350709465e-05 0 
1.7677057517749448e-06 5.464747634622594e-05 0 
1.645298525317079e-06 5.408739268949098e-05 0 
1.5239797982448712e-06 5.3547578575511686e-05 0 
1.4037675084477936e-06 5.302692884042156e-05 0 
1.2852265804077746e-06 5.252468111763518e-05 0 
1.1677470340987227e-06 5.2039602848031885e-05 0 
1.0523535766299401e-06 5.1569751492317465e-05 0 
9.383824520800663e-07 5.111474716717607e-05 0 
8.2631367542993e-07 5.067284740186815e-05 0 
7.160428544252296e-07 5.0243043935033156e-05 0 
6.070780667117621e-07 4.982476112355989e-05 0 
4.996152354569253e-07 4.941694129705906e-05 0 
3.9365665253715084e-07 4.901884717167473e-05 0 
2.888945209391456e-07 4.863008248214946e-05 0 
1.8544963546439906e-07 4.824988808209142e-05 0 
8.327358372439391e-08 4.7877682684310317e-05 0 
-1.7879188523075632e-08 4.7513249243622124e-05 0 
-1.1789631876955458e-07 4.715603610072267e-05 0 
-2.1680182910799072e-07 4.680557238965251e-05 0 
-3.1474927093659475e-07 4.646170998926949e-05 0 
-4.116675105955568e-07 4.6123987522712114e-05 0 
-5.076482953839217e-07 4.579217735178207e-05 0 
-6.026348426555695e-07 4.54659552855034e-05 0 
-6.966547205577197e-07 4.514518067693423e-05 0 
-7.897411109916991e-07 4.482946414951148e-05 0 
-8.819923600819992e-07 4.451867977531947e-05 0 
-9.734261601254323e-07 4.421258184568909e-05 0 
-1.0640512421685393e-06 4.3910967826894946e-05 0 
-1.153938549346489e-06 4.361375504155391e-05 0 
-1.243061463248328e-06 4.332072616977481e-05 0 
-1.3314266673479805e-06 4.3031711612191253e-05 0 
-1.419093942485587e-06 4.274662734428634e-05 0 
-1.5060576254364058e-06 4.2465298144545084e-05 0 
-1.5923178397871448e-06 4.2187581393793224e-05 0 
-1.677922879424644e-06 4.191341122455287e-05 0 
-1.762867014486672e-06 4.1642637095535445e-05 0 
-1.8471601932825954e-06 4.137513746713464e-05 0 
-1.9308354698109146e-06 4.111087016776812e-05 0 
-2.013882656201588e-06 4.08496807847532e-05 0 
-2.096330982992764e-06 4.059152381837006e-05 0 
-2.1781826529230147e-06 4.03362928619343e-05 0 
-2.25945092631572e-06 4.008391172559606e-05 0 
-2.3401339587992772e-06 3.9834305964261493e-05 0 
-2.420261911471721e-06 3.9587398168922155e-05 0 
-2.4998051194945463e-06 3.934312934217475e-05 0 
-2.5788135081965693e-06 3.9101406031306915e-05 0 
-2.6572561888293434e-06 3.886219570332092e-05 0 
-2.735166580781231e-06 3.862542857066286e-05 0 
-2.8125375143459804e-06 3.839104277228172e-05 0 
-2.8893707433184997e-06 3.815898913424022e-05 0 
-2.965670002063116e-06 3.7929212248766714e-05 0 
-3.041431874359865e-06 3.770164549772611e-05 0 
-3.1166712984445483e-06 3.747625942602247e-05 0 
-3.19138589751986e-06 3.7252994906546865e-05 0 
-3.265577790727097e-06 3.703180788178052e-05 0 
-3.3392439038362518e-06 3.681265718606052e-05 0 
-3.412390117854429e-06 3.659550019109178e-05 0 
-3.4850091707005383e-06 3.6380281678307124e-05 0 
-3.5571060209870183e-06 3.6166986969166536e-05 0 
-3.628676400812622e-06 3.595555343776257e-05 0 
-3.6997222732110757e-06 3.5745966843605466e-05 0 
-3.7702355650918498e-06 3.553817944578064e-05 0 
-3.840205960228436e-06 3.533214590072073e-05 0 
-3.909640258976464e-06 3.512785799763035e-05 0 
-3.97852098037691e-06 3.4925254551897324e-05 0 
-4.046849673344388e-06 3.4724325226773845e-05 0 
-4.1146125061579765e-06 3.452502753351002e-05 0 
-4.181800967697057e-06 3.4327327525784155e-05 0 
-4.248406861990107e-06 3.413119789264394e-05 0 
-4.3144224582923455e-06 3.393661271355554e-05 0 
-4.379823039868364e-06 3.374352545774668e-05 0 
-4.444600326594811e-06 3.355193290292427e-05 0 
-4.508736660359345e-06 3.336177490234404e-05 0 
-4.572222129160072e-06 3.3173050551167706e-05 0 
-4.635031013576072e-06 3.29857198764065e-05 0 
-4.6971226114251846e-06 3.279973460643546e-05 0 
-4.758492425650457e-06 3.2615092228903455e-05 0 
-4.819107707065458e-06 3.243174381197161e-05 0 
-4.878912367640776e-06 3.224963134579471e-05 0 
-4.937878192650544e-06 3.206875493105062e-05 0 
-4.995960599662621e-06 3.188902075603797e-05 0 
-5.053076056089006e-06 3.171032307040273e-05 0 
-5.109217833884703e-06 3.153265929247533e-05 0 
-5.164293174538088e-06 3.1355881806099576e-05 0 
-5.2182399456630115e-06 3.118000016252929e-05 0 
-5.270951132326574e-06 3.1004878793892504e-05 0 
-5.322384749248955e-06 3.083041202988337e-05 0 
-5.372454192367271e-06 3.065648567729562e-05 0 
-5.42110502397129e-06 3.0483007367275375e-05 0 
-5.468142186543449e-06 3.030979249068222e-05 0 
-5.513627161848204e-06 3.0136662861865075e-05 0 
-5.557173562311577e-06 2.996362104696919e-05 0 
-5.598751866928794e-06 2.9790247665388792e-05 0 
-5.637947211670501e-06 2.9616389633067935e-05 0 
-5.674735636533125e-06 2.944157980912713e-05 0 
-5.7086322416322426e-06 2.9265709578080614e-05 0 
-5.739246469195403e-06 2.908764779169471e-05 0 
-5.765016050009892e-06 2.8907528972834227e-05 0 
-5.786186070855353e-06 2.8723502871313163e-05 0 
-5.799298625914174e-06 2.853451396190012e-05 0 
-5.800974492373191e-06 2.8338132431666184e-05 0 
-5.780354085682234e-06 2.8119467879457894e-05 0 
-5.753149758271161e-06 2.784370416426779e-05 0 
6.491753726955957e-06 1.602119216557047e-05 0 
7.936193237585072e-06 1.7461299358028754e-05 0 
6.9872889113870035e-06 1.6515690766402967e-05 0 
7.468506218826721e-06 1.699536370755891e-05 0 
8.390599799789588e-06 1.791405471616878e-05 0 
8.832002474322301e-06 1.83540564612933e-05 0 
9.260718925738094e-06 1.878165941398552e-05 0 
9.677084835503452e-06 1.919718422202408e-05 0 
1.0081444555465122e-05 1.9600938597244342e-05 0 
1.0474137396644656e-05 1.99932297177795e-05 0 
1.085550059667121e-05 2.0374361411550476e-05 0 
1.1225868310780403e-05 2.0744633447814052e-05 0 
1.158556861498992e-05 2.1104342343172094e-05 0 
1.1934924291097162e-05 2.1453775601332833e-05 0 
1.2274246547854291e-05 2.179322074895846e-05 0 
1.2603836124636834e-05 2.212295964864472e-05 0 
1.2923983796519948e-05 2.244326811839442e-05 0 
1.5896211770076147e-05 2.5416501180306805e-05 0 
2.0090204695446983e-06 2.9101035711368044e-05 0 
4.4096137826466007e-07 2.8575090687138473e-05 0 
-4.329479157121007e-06 2.724682313202983e-05 0 
6.126189526901633e-07 2.8632805218055942e-05 0 
6.842384034061468e-06 3.060874199901163e-05 0 
1.5763893931699536e-05 3.1263767487946794e-05 0 
1.5959103452286262e-05 3.11223837049392e-05 0 
4.5539453575002626e-06 2.9925820631731638e-05 0 
1.6847058532547824e-05 2.9657871986604607e-05 0 
3.0837227426579993e-06 2.9455571039390675e-05 0 
-7.431619178157814e-07 2.8180198040164994e-05 0 
7.82720746665074e-06 3.087817255416496e-05 0 
1.6307187417774955e-05 3.0781392574216274e-05 0 
1.611600496367362e-05 2.5648972655103618e-05 0 
-1.406708814571652e-06 2.7965180303293662e-05 0 
1.674945045732123e-05 2.6982340306341903e-05 0 
-4.672210621763248e-06 2.723334758875855e-05 0 
1.2644311727735289e-05 3.1805815749998595e-05 0 
1.376701972455878e-05 3.182670937290317e-05 0 
5.975795383072509e-06 1.5505300897609517e-05 0 
7.233999628496671e-06 3.071793795051548e-05 0 
-3.1922450517958202e-06 2.7450697032184274e-05 0 
1.5176939214392135e-05 2.4697201658862e-05 0 
1.6455118675686392e-05 3.058352654375012e-05 0 
-1.0760647312455833e-06 2.8071431182607437e-05 0 
-5.758351619573416e-07 2.8235390643626496e-05 0 
1.3994322026109153e-05 3.181080488139013e-05 0 
1.6459806056456146e-05 2.615714301695043e-05 0 
9.578482433629385e-07 2.874891617265153e-05 0 
1.3537064539646655e-05 2.3056667856701437e-05 0 
1.5125439592993048e-05 3.1576867989215026e-05 0 
8.427596478273538e-06 3.103332504452406e-05 0 
-5.045960818696194e-06 2.7269253628349862e-05 0 
5.495020411785897e-06 3.0215005674693796e-05 0 
8.629375336428795e-06 3.108372898213684e-05 0 
1.4392565627766728e-05 2.391256987993525e-05 0 
3.8134481430234124e-06 2.9691468562170154e-05 0 
9.03548511408554e-06 3.1182286222542365e-05 0 
1.694383536173033e-05 2.835006051196206e-05 0 
-2.7095034610109392e-06 2.7575706740273366e-05 0 
1.83220072639131e-06 2.90420758114285e-05 0 
1.220334234573622e-05 3.176467370612423e-05 0 
-2.393731215265233e-07 2.8347148156487036e-05 0 
9.858336962482701e-06 3.1368784880403965e-05 0 
1.4449668455511994e-05 3.175173852411601e-05 0 
1.6778842592018128e-05 2.9904614087418547e-05 0 
-2.3863891686388994e-06 2.7666550756215176e-05 0 
-4.4983939834374306e-06 2.7235687426037466e-05 0 
-3.836844679297219e-06 2.7313678087131998e-05 0 
-2.548118093336631e-06 2.7620468204923694e-05 0 
1.6583349165231366e-05 3.0369830019346318e-05 0 
-3.999466280421263e-06 2.728692401212227e-05 0 
4.740774468946325e-06 2.9984047613559396e-05 0 
-1.8987142215404425e-06 2.781161297357491e-05 0 
1.6930296964479312e-05 2.914588604297829e-05 0 
-5.269303797832358e-06 2.733383036413058e-05 0 
1.6952276897527473e-05 2.861794923691374e-05 0 
1.689460772059481e-05 2.780837082273957e-05 0 
1.6691206018329044e-05 3.0142699437117203e-05 0 
1.490231323708141e-05 3.164850014079283e-05 0 
7.628687733705133e-06 3.082527764636121e-05 0 
1.6141095518781043e-05 3.096144156549196e-05 0 
7.849136125458803e-07 2.8690757197949454e-05 0 
4.928292414174185e-06 3.0042097082322217e-05 0 
9.651253772584523e-06 3.132365162845791e-05 0 
-7.022515226744002e-08 2.84036350498305e-05 0 
-4.853157271894288e-06 2.7242267908684963e-05 0 
1.1550764525244906e-05 3.168035926406033e-05 0 
1.694821918778253e-05 2.8883428637636718e-05 0 
-1.571224854532335e-06 2.7913159838356115e-05 0 
9.44509566266838e-06 3.1277476158727694e-05 0 
8.226650441215536e-06 3.098223559373995e-05 0 
1.6856329598121185e-05 2.7534705854863875e-05 0 
1.4115614514203242e-05 2.363549873858394e-05 0 
1.6580485716238498e-05 2.642879918328782e-05 0 
1.6560329837328167e-06 2.8983199966190575e-05 0 
6.4537734662333305e-06 3.049791661322976e-05 0 
-4.0790784997503226e-07 2.829105516633519e-05 0 
3.265152888357225e-06 2.951463555604149e-05 0 
-4.163542431867685e-06 2.7264488580679507e-05 0 
1.5423652097891362e-05 2.4943946088675553e-05 0 
1.3056470470732446e-06 2.886577360032474e-05 0 
1.2423225128812117e-05 3.178699590084671e-05 0 
-3.6750883023799352e-06 2.734389777788281e-05 0 
1.1335523064854314e-05 3.1647427343875155e-05 0 
1.3090087393809705e-05 3.183093957525317e-05 0 
5.876363703085673e-06 3.0329060841440532e-05 0 
1.323496998362969e-05 2.2754416334546495e-05 0 
1.68087627034312e-05 2.7259219928101752e-05 0 
6.260576141893153e-06 3.0441956964890057e-05 0 
1.3314719339188613e-05 3.183595073095528e-05 0 
2.7228521060607025e-06 2.9337356689618224e-05 0 
9.239844999499108e-06 3.123033204320182e-05 0 
-3.352999594371448e-06 2.7412752841501417e-05 0 
3.630013357073279e-06 2.9632599745192796e-05 0 
6.647707021021258e-06 3.0553519835442647e-05 0 
2.6993848622660737e-07 2.8517637335977317e-05 0 
1.0275354731877411e-05 3.145559152462029e-05 0 
7.037812181279859e-06 3.0663557216774594e-05 0 
8.02652470181564e-06 3.093050453376269e-05 0 
1.5558229883774298e-05 3.138593758467734e-05 0 
1.689706919101993e-05 2.9404436622955756e-05 0 
-2.8706026010947674e-06 2.7532378342380466e-05 0 
1.3830528850666646e-05 2.3350278811848183e-05 0 
1.4923000515526335e-05 2.4443199139876765e-05 0 
1.1121383472710682e-05 3.1612460989722484e-05 0 
1.6674946796072624e-05 2.670495215390517e-05 0 
1.19846510232345e-05 3.173924595391574e-05 0 
-3.5138751453854617e-06 2.7377023841685e-05 0 
1.534467656443718e-05 3.148985523485099e-05 0 
6.068108348334916e-06 3.038566425024224e-05 0 
-2.0617200551585596e-06 2.7762209893339935e-05 0 
2.9029566267874e-06 2.939647296971001e-05 0 
9.95433812262571e-08 2.8460474984391695e-05 0 
2.3646225296913437e-06 2.9219134115795515e-05 0 
1.1767132386829958e-05 3.1711046552252343e-05 0 
7.430955102416007e-06 3.0771855092888004e-05 0 
4.182339357294282e-06 2.980890094265017e-05 0 
1.006636413461443e-05 3.1412794813632163e-05 0 
1.6924188041108918e-05 2.808014412759738e-05 0 
3.447249118964632e-06 2.9573650108027886e-05 0 
-1.7352198043318436e-06 2.786194500188455e-05 0 
1.4661617727935317e-05 2.4181727627448105e-05 0 
1.4805158389643742e-06 2.8924425294561707e-05 0 
5.305410995111216e-06 3.0157594084935027e-05 0 
-3.031491391329899e-06 2.7490662888488458e-05 0 
5.685336233049398e-06 3.0272167841906922e-05 0 
1.5663350184128076e-05 2.5183637489955206e-05 0 
3.997555885131639e-06 2.9750240866195924e-05 0 
-2.224266856795391e-06 2.7713826936797755e-05 0 
1.4676700396502245e-05 3.170629891470966e-05 0 
1.3540412970774743e-05 3.183481886331809e-05 0 
2.5434080822756258e-06 2.927823847763177e-05 0 
1.422201371585204e-05 3.178617054008271e-05 0 
5.116503202344293e-06 3.0099951742694303e-05 0 
-9.099019395928981e-07 2.8125527523269393e-05 0 
1.0908320936097222e-05 3.157564316850527e-05 0 
1.2866604030329078e-05 3.182065672827692e-05 0 
-1.2416614908472777e-06 2.8017961374007667e-05 0 
2.186493839442803e-06 2.9160061306561148e-05 0 
4.3678014701754345e-06 2.986743295839116e-05 0 
8.832000171875263e-06 3.11333998548919e-05 0 
1.0485329772479467e-05 3.149707517180696e-05 0 
1.1314254715059902e-06 2.880726283454457e-05 0 
1.630610328360502e-05 2.58953134093992e-05 0 
1.0696310904979903e-05 3.15371341294853e-05 0 
-5.728603909763781e-06 9.074230658025797e-05 0 
3.537426713234106e-06 2.2520805021544686e-05 0 
-2.258391596597839e-06 2.1238597175611684e-05 0 
8.39050265282156e-06 2.551115029676274e-05 0 
1.2076237399106754e-05 2.7521607673632764e-05 0 
-4.626856734904319e-07 8.742803877674453e-05 0 
4.832224465574208e-06 2.620581716840004e-05 0 
1.6324282036991047e-06 2.543225974606639e-05 0 
-1.388529538519966e-06 2.4501698228455483e-05 0 
9.338678712316552e-06 2.835911507521754e-05 0 
6.8724885107364645e-06 2.7937583476212557e-05 0 
1.425502462883221e-05 2.9064374206593018e-05 0 
-5.833679698794866e-06 7.987017381025963e-05 0 
2.7006602604074416e-06 6.400441397080488e-05 0 
3.3670390021677133e-06 8.497485112341337e-05 0 
1.117637861381325e-05 2.9494421333368777e-05 0 
2.9512174729906292e-06 2.7195830514126925e-05 0 
-1.5963295173136188e-07 2.627882651186737e-05 0 
5.0425432702288844e-06 2.8129068894325616e-05 0 
-4.130594005771422e-06 2.387093719609441e-05 0 
1.1145040611822801e-05 2.474515135235373e-05 0 
7.1787180104156165e-06 2.1957991662446265e-05 0 
1.4127658653515726e-05 2.6881785665117216e-05 0 
1.2871009581419758e-05 3.0150050407322902e-05 0 
1.3867363474950156e-06 2.723616329693324e-05 0 
7.913993723241689e-06 2.920236635065452e-05 0 
2.420967463494031e-08 8.183129717735176e-05 0 
-3.018055425079031e-06 7.48701363705653e-05 0 
7.243463294577394e-07 6.19687345839847e-05 0 
1.8591604226685798e-06 4.465122753990554e-05 0 
9.670233764634471e-06 2.9824733092524495e-05 0 
1.0292214638868312e-05 2.6609331920629303e-05 0 
-1.5857265607931842e-06 2.628981357874499e-05 0 
-3.100816664436744e-06 2.5536560801601877e-05 0 
5.037042016024911e-06 1.9369984843847577e-05 0 